
     Program PWSCF v.7.5 starts on  1Nov2025 at 19:15:37 

     This program is part of the open-source Quantum ESPRESSO suite
     for quantum simulation of materials; please cite
         "P. Giannozzi et al., J. Phys.:Condens. Matter 21 395502 (2009);
         "P. Giannozzi et al., J. Phys.:Condens. Matter 29 465901 (2017);
         "P. Giannozzi et al., J. Chem. Phys. 152 154105 (2020);
          URL http://www.quantum-espresso.org", 
     in publications or presentations arising from this work. More details at
     http://www.quantum-espresso.org/quote

     Parallel version (MPI), running on    96 processors

     MPI processes distributed on     2 nodes
     154934 MiB available memory on the printing compute node when the environment starts
 
     Reading input from pw_nv_diamond_relax.in
Warning: card &CELL ignored
Warning: card &FCP ignored
Warning: card &RISM ignored

     Current dimensions of program PWSCF are:
     Max number of different atomic species (ntypx) = 10
     Max number of k-points (npk) =  40000
     Max angular momentum in pseudopotentials (lmaxx) =  4

     gamma-point specific algorithms are used
     Message from routine setup:
     using ibrav=0 with symmetry is DISCOURAGED, use correct ibrav instead
 
     K-points division:     npool     =       2
     R & G space division:  proc/nbgrp/npool/nimage =      48
     Subspace diagonalization in iterative solution of the eigenvalue problem:
     one sub-group per band group will be used
     scalapack distributed-memory algorithm (size of sub-group:  2*  2 procs)

 
     Parallelization info
     --------------------
     sticks:   dense  smooth     PW     G-vecs:    dense   smooth      PW
     Min         101     101     24                 5400     5400     668
     Max         106     106     26                 5412     5412     682
     Sum        4921    4921   1225               259335   259335   32423
 
     Using Slab Decomposition
 


     bravais-lattice index     =            0
     lattice parameter (alat)  =      13.4813  a.u.
     unit-cell volume          =    2450.1683 (a.u.)^3
     number of atoms/cell      =           63
     number of atomic types    =            2
     number of electrons       =       254.00 (up: 128.00, down: 126.00)
     number of Kohn-Sham states=          152
     kinetic-energy cutoff     =      85.0000  Ry
     charge density cutoff     =     340.0000  Ry
     scf convergence threshold =      1.0E-08
     mixing beta               =       0.7000
     number of iterations used =            8  plain     mixing
     energy convergence thresh.=      1.0E-04
     force convergence thresh. =      3.9E-04
     Exchange-correlation= PBE
                           (   1   4   3   4   0   0   0)
     nstep                     =          100


     celldm(1)=  13.481306  celldm(2)=   0.000000  celldm(3)=   0.000000
     celldm(4)=   0.000000  celldm(5)=   0.000000  celldm(6)=   0.000000

     crystal axes: (cart. coord. in units of alat)
               a(1) = (   1.000000   0.000000   0.000000 )  
               a(2) = (   0.000000   1.000000   0.000000 )  
               a(3) = (   0.000000   0.000000   1.000000 )  

     reciprocal axes: (cart. coord. in units 2 pi/alat)
               b(1) = (  1.000000  0.000000  0.000000 )  
               b(2) = (  0.000000  1.000000  0.000000 )  
               b(3) = (  0.000000  0.000000  1.000000 )  


     PseudoPot. # 1 for N  read from file:
     /home/sstaylor/espresso/pseudo/N_ONCV_PBE-1.2.upf
     MD5 check sum: c233fa8df51455e992258b7c3dee8a9f
     Pseudo is Norm-conserving, Zval =  5.0
     Generated using ONCVPSP code by D. R. Hamann
     Using radial grid of  602 points,  4 beta functions with: 
                l(1) =   0
                l(2) =   0
                l(3) =   1
                l(4) =   1

     PseudoPot. # 2 for C  read from file:
     /home/sstaylor/espresso/pseudo/C_ONCV_PBE-1.2.upf
     MD5 check sum: 1a5f83a7b1f58d24996abe00ed223ac6
     Pseudo is Norm-conserving, Zval =  4.0
     Generated using ONCVPSP code by D. R. Hamann
     Using radial grid of  602 points,  4 beta functions with: 
                l(1) =   0
                l(2) =   0
                l(3) =   1
                l(4) =   1

     atomic species   valence    mass     pseudopotential
     N                 5.00    14.00700     N ( 1.00)
     C                 4.00    12.01100     C ( 1.00)

     Starting magnetic structure 
     atomic species   magnetization
     N               0.000
     C               0.000

      6 Sym. Ops. (no inversion) found


                                    s                        frac. trans.

      isym =  1     identity                                     

 cryst.   s( 1) = (     1          0          0      )
                  (     0          1          0      )
                  (     0          0          1      )

 cart.    s( 1) = (  1.0000000  0.0000000  0.0000000 )
                  (  0.0000000  1.0000000  0.0000000 )
                  (  0.0000000  0.0000000  1.0000000 )


      isym =  2     120 deg rotation - cart. axis [-1,-1,-1]     

 cryst.   s( 2) = (     0          0          1      )
                  (     1          0          0      )
                  (     0          1          0      )

 cart.    s( 2) = (  0.0000000  1.0000000  0.0000000 )
                  (  0.0000000  0.0000000  1.0000000 )
                  (  1.0000000  0.0000000  0.0000000 )


      isym =  3     120 deg rotation - cart. axis [1,1,1]        

 cryst.   s( 3) = (     0          1          0      )
                  (     0          0          1      )
                  (     1          0          0      )

 cart.    s( 3) = (  0.0000000  0.0000000  1.0000000 )
                  (  1.0000000  0.0000000  0.0000000 )
                  (  0.0000000  1.0000000  0.0000000 )


      isym =  4     inv. 180 deg rotation - cart. axis [1,-1,0]  

 cryst.   s( 4) = (     0          1          0      )
                  (     1          0          0      )
                  (     0          0          1      )

 cart.    s( 4) = (  0.0000000  1.0000000  0.0000000 )
                  (  1.0000000  0.0000000  0.0000000 )
                  (  0.0000000  0.0000000  1.0000000 )


      isym =  5     inv. 180 deg rotation - cart. axis [-1,0,1]  

 cryst.   s( 5) = (     0          0          1      )
                  (     0          1          0      )
                  (     1          0          0      )

 cart.    s( 5) = (  0.0000000  0.0000000  1.0000000 )
                  (  0.0000000  1.0000000  0.0000000 )
                  (  1.0000000  0.0000000  0.0000000 )


      isym =  6     inv. 180 deg rotation - cart. axis [0,1,-1]  

 cryst.   s( 6) = (     1          0          0      )
                  (     0          0          1      )
                  (     0          1          0      )

 cart.    s( 6) = (  1.0000000  0.0000000  0.0000000 )
                  (  0.0000000  0.0000000  1.0000000 )
                  (  0.0000000  1.0000000  0.0000000 )


   Cartesian axes

     site n.     atom                  positions (alat units)
         1        N      tau(   1) = (   0.0000000   0.0000000   0.0000000  )
         2        C      tau(   2) = (   0.0000000   0.2500000   0.2500000  )
         3        C      tau(   3) = (   0.1250000   0.3750000   0.3750000  )
         4        C      tau(   4) = (   0.2500000   0.0000000   0.2500000  )
         5        C      tau(   5) = (   0.3750000   0.1250000   0.3750000  )
         6        C      tau(   6) = (   0.2500000   0.2500000   0.0000000  )
         7        C      tau(   7) = (   0.3750000   0.3750000   0.1250000  )
         8        C      tau(   8) = (   0.0000000   0.0000000   0.5000000  )
         9        C      tau(   9) = (   0.1250000   0.1250000   0.6250000  )
        10        C      tau(  10) = (   0.0000000   0.2500000   0.7500000  )
        11        C      tau(  11) = (   0.1250000   0.3750000   0.8750000  )
        12        C      tau(  12) = (   0.2500000   0.0000000   0.7500000  )
        13        C      tau(  13) = (   0.3750000   0.1250000   0.8750000  )
        14        C      tau(  14) = (   0.2500000   0.2500000   0.5000000  )
        15        C      tau(  15) = (   0.3750000   0.3750000   0.6250000  )
        16        C      tau(  16) = (   0.0000000   0.5000000   0.0000000  )
        17        C      tau(  17) = (   0.1250000   0.6250000   0.1250000  )
        18        C      tau(  18) = (   0.0000000   0.7500000   0.2500000  )
        19        C      tau(  19) = (   0.1250000   0.8750000   0.3750000  )
        20        C      tau(  20) = (   0.2500000   0.5000000   0.2500000  )
        21        C      tau(  21) = (   0.3750000   0.6250000   0.3750000  )
        22        C      tau(  22) = (   0.2500000   0.7500000   0.0000000  )
        23        C      tau(  23) = (   0.3750000   0.8750000   0.1250000  )
        24        C      tau(  24) = (   0.0000000   0.5000000   0.5000000  )
        25        C      tau(  25) = (   0.1250000   0.6250000   0.6250000  )
        26        C      tau(  26) = (   0.0000000   0.7500000   0.7500000  )
        27        C      tau(  27) = (   0.1250000   0.8750000   0.8750000  )
        28        C      tau(  28) = (   0.2500000   0.5000000   0.7500000  )
        29        C      tau(  29) = (   0.3750000   0.6250000   0.8750000  )
        30        C      tau(  30) = (   0.2500000   0.7500000   0.5000000  )
        31        C      tau(  31) = (   0.3750000   0.8750000   0.6250000  )
        32        C      tau(  32) = (   0.5000000   0.0000000   0.0000000  )
        33        C      tau(  33) = (   0.6250000   0.1250000   0.1250000  )
        34        C      tau(  34) = (   0.5000000   0.2500000   0.2500000  )
        35        C      tau(  35) = (   0.6250000   0.3750000   0.3750000  )
        36        C      tau(  36) = (   0.7500000   0.0000000   0.2500000  )
        37        C      tau(  37) = (   0.8750000   0.1250000   0.3750000  )
        38        C      tau(  38) = (   0.7500000   0.2500000   0.0000000  )
        39        C      tau(  39) = (   0.8750000   0.3750000   0.1250000  )
        40        C      tau(  40) = (   0.5000000   0.0000000   0.5000000  )
        41        C      tau(  41) = (   0.6250000   0.1250000   0.6250000  )
        42        C      tau(  42) = (   0.5000000   0.2500000   0.7500000  )
        43        C      tau(  43) = (   0.6250000   0.3750000   0.8750000  )
        44        C      tau(  44) = (   0.7500000   0.0000000   0.7500000  )
        45        C      tau(  45) = (   0.8750000   0.1250000   0.8750000  )
        46        C      tau(  46) = (   0.7500000   0.2500000   0.5000000  )
        47        C      tau(  47) = (   0.8750000   0.3750000   0.6250000  )
        48        C      tau(  48) = (   0.5000000   0.5000000   0.0000000  )
        49        C      tau(  49) = (   0.6250000   0.6250000   0.1250000  )
        50        C      tau(  50) = (   0.5000000   0.7500000   0.2500000  )
        51        C      tau(  51) = (   0.6250000   0.8750000   0.3750000  )
        52        C      tau(  52) = (   0.7500000   0.5000000   0.2500000  )
        53        C      tau(  53) = (   0.8750000   0.6250000   0.3750000  )
        54        C      tau(  54) = (   0.7500000   0.7500000   0.0000000  )
        55        C      tau(  55) = (   0.8750000   0.8750000   0.1250000  )
        56        C      tau(  56) = (   0.5000000   0.5000000   0.5000000  )
        57        C      tau(  57) = (   0.6250000   0.6250000   0.6250000  )
        58        C      tau(  58) = (   0.5000000   0.7500000   0.7500000  )
        59        C      tau(  59) = (   0.6250000   0.8750000   0.8750000  )
        60        C      tau(  60) = (   0.7500000   0.5000000   0.7500000  )
        61        C      tau(  61) = (   0.8750000   0.6250000   0.8750000  )
        62        C      tau(  62) = (   0.7500000   0.7500000   0.5000000  )
        63        C      tau(  63) = (   0.8750000   0.8750000   0.6250000  )

   Crystallographic axes

     site n.     atom                  positions (cryst. coord.)
         1        N      tau(   1) = (  0.0000000  0.0000000  0.0000000  )
         2        C      tau(   2) = (  0.0000000  0.2500000  0.2500000  )
         3        C      tau(   3) = (  0.1250000  0.3750000  0.3750000  )
         4        C      tau(   4) = (  0.2500000  0.0000000  0.2500000  )
         5        C      tau(   5) = (  0.3750000  0.1250000  0.3750000  )
         6        C      tau(   6) = (  0.2500000  0.2500000  0.0000000  )
         7        C      tau(   7) = (  0.3750000  0.3750000  0.1250000  )
         8        C      tau(   8) = (  0.0000000  0.0000000  0.5000000  )
         9        C      tau(   9) = (  0.1250000  0.1250000  0.6250000  )
        10        C      tau(  10) = (  0.0000000  0.2500000  0.7500000  )
        11        C      tau(  11) = (  0.1250000  0.3750000  0.8750000  )
        12        C      tau(  12) = (  0.2500000  0.0000000  0.7500000  )
        13        C      tau(  13) = (  0.3750000  0.1250000  0.8750000  )
        14        C      tau(  14) = (  0.2500000  0.2500000  0.5000000  )
        15        C      tau(  15) = (  0.3750000  0.3750000  0.6250000  )
        16        C      tau(  16) = (  0.0000000  0.5000000  0.0000000  )
        17        C      tau(  17) = (  0.1250000  0.6250000  0.1250000  )
        18        C      tau(  18) = (  0.0000000  0.7500000  0.2500000  )
        19        C      tau(  19) = (  0.1250000  0.8750000  0.3750000  )
        20        C      tau(  20) = (  0.2500000  0.5000000  0.2500000  )
        21        C      tau(  21) = (  0.3750000  0.6250000  0.3750000  )
        22        C      tau(  22) = (  0.2500000  0.7500000  0.0000000  )
        23        C      tau(  23) = (  0.3750000  0.8750000  0.1250000  )
        24        C      tau(  24) = (  0.0000000  0.5000000  0.5000000  )
        25        C      tau(  25) = (  0.1250000  0.6250000  0.6250000  )
        26        C      tau(  26) = (  0.0000000  0.7500000  0.7500000  )
        27        C      tau(  27) = (  0.1250000  0.8750000  0.8750000  )
        28        C      tau(  28) = (  0.2500000  0.5000000  0.7500000  )
        29        C      tau(  29) = (  0.3750000  0.6250000  0.8750000  )
        30        C      tau(  30) = (  0.2500000  0.7500000  0.5000000  )
        31        C      tau(  31) = (  0.3750000  0.8750000  0.6250000  )
        32        C      tau(  32) = (  0.5000000  0.0000000  0.0000000  )
        33        C      tau(  33) = (  0.6250000  0.1250000  0.1250000  )
        34        C      tau(  34) = (  0.5000000  0.2500000  0.2500000  )
        35        C      tau(  35) = (  0.6250000  0.3750000  0.3750000  )
        36        C      tau(  36) = (  0.7500000  0.0000000  0.2500000  )
        37        C      tau(  37) = (  0.8750000  0.1250000  0.3750000  )
        38        C      tau(  38) = (  0.7500000  0.2500000  0.0000000  )
        39        C      tau(  39) = (  0.8750000  0.3750000  0.1250000  )
        40        C      tau(  40) = (  0.5000000  0.0000000  0.5000000  )
        41        C      tau(  41) = (  0.6250000  0.1250000  0.6250000  )
        42        C      tau(  42) = (  0.5000000  0.2500000  0.7500000  )
        43        C      tau(  43) = (  0.6250000  0.3750000  0.8750000  )
        44        C      tau(  44) = (  0.7500000  0.0000000  0.7500000  )
        45        C      tau(  45) = (  0.8750000  0.1250000  0.8750000  )
        46        C      tau(  46) = (  0.7500000  0.2500000  0.5000000  )
        47        C      tau(  47) = (  0.8750000  0.3750000  0.6250000  )
        48        C      tau(  48) = (  0.5000000  0.5000000  0.0000000  )
        49        C      tau(  49) = (  0.6250000  0.6250000  0.1250000  )
        50        C      tau(  50) = (  0.5000000  0.7500000  0.2500000  )
        51        C      tau(  51) = (  0.6250000  0.8750000  0.3750000  )
        52        C      tau(  52) = (  0.7500000  0.5000000  0.2500000  )
        53        C      tau(  53) = (  0.8750000  0.6250000  0.3750000  )
        54        C      tau(  54) = (  0.7500000  0.7500000  0.0000000  )
        55        C      tau(  55) = (  0.8750000  0.8750000  0.1250000  )
        56        C      tau(  56) = (  0.5000000  0.5000000  0.5000000  )
        57        C      tau(  57) = (  0.6250000  0.6250000  0.6250000  )
        58        C      tau(  58) = (  0.5000000  0.7500000  0.7500000  )
        59        C      tau(  59) = (  0.6250000  0.8750000  0.8750000  )
        60        C      tau(  60) = (  0.7500000  0.5000000  0.7500000  )
        61        C      tau(  61) = (  0.8750000  0.6250000  0.8750000  )
        62        C      tau(  62) = (  0.7500000  0.7500000  0.5000000  )
        63        C      tau(  63) = (  0.8750000  0.8750000  0.6250000  )

     number of k points=     1
                       cart. coord. in units 2pi/alat
        k(    1) = (   0.0000000   0.0000000   0.0000000), wk =   1.0000000

                       cryst. coord.
        k(    1) = (   0.0000000   0.0000000   0.0000000), wk =   1.0000000

     Dense  grid:   129668 G-vectors     FFT dimensions: (  80,  80,  80)

     Dynamical RAM for                 wfc:       0.78 MB

     Dynamical RAM for     wfc (w. buffer):       0.78 MB

     Dynamical RAM for           str. fact:       0.08 MB

     Dynamical RAM for           local pot:       0.00 MB

     Dynamical RAM for          nlocal pot:       2.59 MB

     Dynamical RAM for                qrad:       0.85 MB

     Dynamical RAM for          rho,v,vnew:       0.83 MB

     Dynamical RAM for               rhoin:       0.28 MB

     Dynamical RAM for            rho*nmix:       1.32 MB

     Dynamical RAM for           G-vectors:       0.18 MB

     Dynamical RAM for          h,s,v(r/c):       0.53 MB

     Dynamical RAM for          <psi|beta>:       0.58 MB

     Dynamical RAM for                 psi:       1.56 MB

     Dynamical RAM for                hpsi:       1.56 MB

     Dynamical RAM for      wfcinit/wfcrot:       2.09 MB

     Estimated static dynamical RAM per process >       6.30 MB

     Estimated max dynamical RAM per process >      11.86 MB

     Estimated total dynamical RAM >       1.05 GB
     Generating pointlists ...
     new r_m :   0.0893 (alat units)  1.2040 (a.u.) for type    1
     new r_m :   0.0893 (alat units)  1.2040 (a.u.) for type    2

     Initial potential from superposition of free atoms

     starting charge     252.5655, renormalised to     254.0000
     Starting wfcs are random

     total cpu time spent up to now is        1.7 secs

     Self-consistent Calculation

     iteration #  1     ecut=    85.00 Ry     beta= 0.70
     Davidson diagonalization with overlap

---- Real-time Memory Report at c_bands before calling an iterative solver
           163 MiB given to the printing process from OS
             0 MiB allocation reported by mallinfo(arena+hblkhd)
        153813 MiB available memory on the node where the printing process lives
------------------
     ethr =  1.00E-02,  avg # of iterations = 13.0

     total cpu time spent up to now is        2.8 secs

     total energy              =    -723.79289920 Ry
     estimated scf accuracy    <       3.68871375 Ry

     total magnetization       =     2.00 Bohr mag/cell
     absolute magnetization    =     2.00 Bohr mag/cell

     iteration #  2     ecut=    85.00 Ry     beta= 0.70
     Davidson diagonalization with overlap

---- Real-time Memory Report at c_bands before calling an iterative solver
           172 MiB given to the printing process from OS
             0 MiB allocation reported by mallinfo(arena+hblkhd)
        153688 MiB available memory on the node where the printing process lives
------------------
     ethr =  1.45E-03,  avg # of iterations = 14.0

     total cpu time spent up to now is        4.1 secs

     total energy              =    -724.14401881 Ry
     estimated scf accuracy    <       0.41031059 Ry

     total magnetization       =     2.00 Bohr mag/cell
     absolute magnetization    =     2.06 Bohr mag/cell

     iteration #  3     ecut=    85.00 Ry     beta= 0.70
     Davidson diagonalization with overlap

---- Real-time Memory Report at c_bands before calling an iterative solver
           173 MiB given to the printing process from OS
             0 MiB allocation reported by mallinfo(arena+hblkhd)
        153690 MiB available memory on the node where the printing process lives
------------------
     c_bands:  1 eigenvalues not converged
     ethr =  1.62E-04,  avg # of iterations = 20.0

     total cpu time spent up to now is        4.9 secs

     total energy              =    -724.18281870 Ry
     estimated scf accuracy    <       0.90410910 Ry

     total magnetization       =     2.00 Bohr mag/cell
     absolute magnetization    =     2.10 Bohr mag/cell

     iteration #  4     ecut=    85.00 Ry     beta= 0.70
     Davidson diagonalization with overlap

---- Real-time Memory Report at c_bands before calling an iterative solver
           174 MiB given to the printing process from OS
             0 MiB allocation reported by mallinfo(arena+hblkhd)
        153686 MiB available memory on the node where the printing process lives
------------------
     ethr =  1.62E-04,  avg # of iterations = 14.5

     total cpu time spent up to now is        5.5 secs

     total energy              =    -724.36147154 Ry
     estimated scf accuracy    <       0.00757237 Ry

     total magnetization       =     2.00 Bohr mag/cell
     absolute magnetization    =     2.15 Bohr mag/cell

     iteration #  5     ecut=    85.00 Ry     beta= 0.70
     Davidson diagonalization with overlap

---- Real-time Memory Report at c_bands before calling an iterative solver
           174 MiB given to the printing process from OS
             0 MiB allocation reported by mallinfo(arena+hblkhd)
        153679 MiB available memory on the node where the printing process lives
------------------
     ethr =  2.98E-06,  avg # of iterations = 37.0

     total cpu time spent up to now is        7.1 secs

     total energy              =    -724.36511228 Ry
     estimated scf accuracy    <       0.00432479 Ry

     total magnetization       =     2.00 Bohr mag/cell
     absolute magnetization    =     2.17 Bohr mag/cell

     iteration #  6     ecut=    85.00 Ry     beta= 0.70
     Davidson diagonalization with overlap

---- Real-time Memory Report at c_bands before calling an iterative solver
           175 MiB given to the printing process from OS
             0 MiB allocation reported by mallinfo(arena+hblkhd)
        153669 MiB available memory on the node where the printing process lives
------------------
     c_bands:  1 eigenvalues not converged
     ethr =  1.70E-06,  avg # of iterations = 20.0

     total cpu time spent up to now is        8.1 secs

     total energy              =    -724.36587737 Ry
     estimated scf accuracy    <       0.00060699 Ry

     total magnetization       =     2.00 Bohr mag/cell
     absolute magnetization    =     2.19 Bohr mag/cell

     iteration #  7     ecut=    85.00 Ry     beta= 0.70
     Davidson diagonalization with overlap

---- Real-time Memory Report at c_bands before calling an iterative solver
           175 MiB given to the printing process from OS
             0 MiB allocation reported by mallinfo(arena+hblkhd)
        153656 MiB available memory on the node where the printing process lives
------------------
     c_bands:  1 eigenvalues not converged
     ethr =  2.39E-07,  avg # of iterations = 20.0

     total cpu time spent up to now is       10.0 secs

     total energy              =    -724.36605671 Ry
     estimated scf accuracy    <       0.00005393 Ry

     total magnetization       =     2.00 Bohr mag/cell
     absolute magnetization    =     2.20 Bohr mag/cell

     iteration #  8     ecut=    85.00 Ry     beta= 0.70
     Davidson diagonalization with overlap

---- Real-time Memory Report at c_bands before calling an iterative solver
           175 MiB given to the printing process from OS
             0 MiB allocation reported by mallinfo(arena+hblkhd)
        153655 MiB available memory on the node where the printing process lives
------------------
     c_bands:  3 eigenvalues not converged
     ethr =  2.12E-08,  avg # of iterations = 20.0

     total cpu time spent up to now is       11.4 secs

     total energy              =    -724.36607806 Ry
     estimated scf accuracy    <       0.00001421 Ry

     total magnetization       =     2.00 Bohr mag/cell
     absolute magnetization    =     2.21 Bohr mag/cell

     iteration #  9     ecut=    85.00 Ry     beta= 0.70
     Davidson diagonalization with overlap

---- Real-time Memory Report at c_bands before calling an iterative solver
           176 MiB given to the printing process from OS
             0 MiB allocation reported by mallinfo(arena+hblkhd)
        153641 MiB available memory on the node where the printing process lives
------------------
     c_bands:  2 eigenvalues not converged
     ethr =  5.59E-09,  avg # of iterations = 20.0

     total cpu time spent up to now is       13.9 secs

     total energy              =    -724.36608317 Ry
     estimated scf accuracy    <       0.00000288 Ry

     total magnetization       =     2.00 Bohr mag/cell
     absolute magnetization    =     2.21 Bohr mag/cell

     iteration # 10     ecut=    85.00 Ry     beta= 0.70
     Davidson diagonalization with overlap

---- Real-time Memory Report at c_bands before calling an iterative solver
           176 MiB given to the printing process from OS
             0 MiB allocation reported by mallinfo(arena+hblkhd)
        153640 MiB available memory on the node where the printing process lives
------------------
     c_bands:  1 eigenvalues not converged
     ethr =  1.13E-09,  avg # of iterations = 20.0

     total cpu time spent up to now is       14.9 secs

     total energy              =    -724.36608477 Ry
     estimated scf accuracy    <       0.00000077 Ry

     total magnetization       =     2.00 Bohr mag/cell
     absolute magnetization    =     2.22 Bohr mag/cell

     iteration # 11     ecut=    85.00 Ry     beta= 0.70
     Davidson diagonalization with overlap

---- Real-time Memory Report at c_bands before calling an iterative solver
           176 MiB given to the printing process from OS
             0 MiB allocation reported by mallinfo(arena+hblkhd)
        153637 MiB available memory on the node where the printing process lives
------------------
     c_bands:  1 eigenvalues not converged
     ethr =  3.04E-10,  avg # of iterations = 20.0

     total cpu time spent up to now is       17.7 secs

     total energy              =    -724.36608513 Ry
     estimated scf accuracy    <       0.00000021 Ry

     total magnetization       =     2.00 Bohr mag/cell
     absolute magnetization    =     2.22 Bohr mag/cell

     iteration # 12     ecut=    85.00 Ry     beta= 0.70
     Davidson diagonalization with overlap

---- Real-time Memory Report at c_bands before calling an iterative solver
           176 MiB given to the printing process from OS
             0 MiB allocation reported by mallinfo(arena+hblkhd)
        153621 MiB available memory on the node where the printing process lives
------------------
     c_bands:  2 eigenvalues not converged
     ethr =  8.29E-11,  avg # of iterations = 20.0

     total cpu time spent up to now is       19.2 secs

     total energy              =    -724.36608522 Ry
     estimated scf accuracy    <       0.00000006 Ry

     total magnetization       =     2.00 Bohr mag/cell
     absolute magnetization    =     2.22 Bohr mag/cell

     iteration # 13     ecut=    85.00 Ry     beta= 0.70
     Davidson diagonalization with overlap

---- Real-time Memory Report at c_bands before calling an iterative solver
           176 MiB given to the printing process from OS
             0 MiB allocation reported by mallinfo(arena+hblkhd)
        153635 MiB available memory on the node where the printing process lives
------------------
     c_bands:  2 eigenvalues not converged
     ethr =  2.32E-11,  avg # of iterations = 19.0

     total cpu time spent up to now is       20.4 secs

     total energy              =    -724.36608525 Ry
     estimated scf accuracy    <       0.00000001 Ry

     total magnetization       =     2.00 Bohr mag/cell
     absolute magnetization    =     2.22 Bohr mag/cell

     iteration # 14     ecut=    85.00 Ry     beta= 0.70
     Davidson diagonalization with overlap

---- Real-time Memory Report at c_bands before calling an iterative solver
           176 MiB given to the printing process from OS
             0 MiB allocation reported by mallinfo(arena+hblkhd)
        153635 MiB available memory on the node where the printing process lives
------------------
     c_bands:  2 eigenvalues not converged
     ethr =  5.24E-12,  avg # of iterations = 20.0
 
     Magnetic moment per site  (integrated on atomic sphere of radius R)
     atom   1 (R=0.089)  charge=  3.0714  magn=  0.0032
     atom   2 (R=0.089)  charge=  1.9578  magn=  0.2880
     atom   3 (R=0.089)  charge=  2.0189  magn= -0.0082
     atom   4 (R=0.089)  charge=  1.9578  magn=  0.2880
     atom   5 (R=0.089)  charge=  2.0189  magn= -0.0082
     atom   6 (R=0.089)  charge=  1.9578  magn=  0.2880
     atom   7 (R=0.089)  charge=  2.0189  magn= -0.0082
     atom   8 (R=0.089)  charge=  2.0262  magn=  0.0062
     atom   9 (R=0.089)  charge=  2.0254  magn= -0.0016
     atom  10 (R=0.089)  charge=  2.0267  magn=  0.0042
     atom  11 (R=0.089)  charge=  2.0173  magn=  0.0017
     atom  12 (R=0.089)  charge=  2.0267  magn=  0.0042
     atom  13 (R=0.089)  charge=  2.0173  magn=  0.0017
     atom  14 (R=0.089)  charge=  2.0255  magn=  0.0064
     atom  15 (R=0.089)  charge=  2.0276  magn= -0.0016
     atom  16 (R=0.089)  charge=  2.0262  magn=  0.0062
     atom  17 (R=0.089)  charge=  2.0254  magn= -0.0016
     atom  18 (R=0.089)  charge=  2.0267  magn=  0.0042
     atom  19 (R=0.089)  charge=  2.0173  magn=  0.0017
     atom  20 (R=0.089)  charge=  2.0255  magn=  0.0064
     atom  21 (R=0.089)  charge=  2.0276  magn= -0.0016
     atom  22 (R=0.089)  charge=  2.0267  magn=  0.0042
     atom  23 (R=0.089)  charge=  2.0173  magn=  0.0017
     atom  24 (R=0.089)  charge=  2.0268  magn=  0.0149
     atom  25 (R=0.089)  charge=  2.0281  magn=  0.0082
     atom  26 (R=0.089)  charge=  2.0302  magn=  0.0027
     atom  27 (R=0.089)  charge=  1.9814  magn=  0.0017
     atom  28 (R=0.089)  charge=  2.0269  magn=  0.0184
     atom  29 (R=0.089)  charge=  2.0266  magn= -0.0010
     atom  30 (R=0.089)  charge=  2.0269  magn=  0.0184
     atom  31 (R=0.089)  charge=  2.0266  magn= -0.0010
     atom  32 (R=0.089)  charge=  2.0262  magn=  0.0062
     atom  33 (R=0.089)  charge=  2.0254  magn= -0.0016
     atom  34 (R=0.089)  charge=  2.0255  magn=  0.0064
     atom  35 (R=0.089)  charge=  2.0276  magn= -0.0016
     atom  36 (R=0.089)  charge=  2.0267  magn=  0.0042
     atom  37 (R=0.089)  charge=  2.0173  magn=  0.0017
     atom  38 (R=0.089)  charge=  2.0267  magn=  0.0042
     atom  39 (R=0.089)  charge=  2.0173  magn=  0.0017
     atom  40 (R=0.089)  charge=  2.0268  magn=  0.0149
     atom  41 (R=0.089)  charge=  2.0281  magn=  0.0082
     atom  42 (R=0.089)  charge=  2.0269  magn=  0.0184
     atom  43 (R=0.089)  charge=  2.0266  magn= -0.0010
     atom  44 (R=0.089)  charge=  2.0302  magn=  0.0027
     atom  45 (R=0.089)  charge=  1.9814  magn=  0.0017
     atom  46 (R=0.089)  charge=  2.0269  magn=  0.0184
     atom  47 (R=0.089)  charge=  2.0266  magn= -0.0010
     atom  48 (R=0.089)  charge=  2.0268  magn=  0.0149
     atom  49 (R=0.089)  charge=  2.0281  magn=  0.0082
     atom  50 (R=0.089)  charge=  2.0269  magn=  0.0184
     atom  51 (R=0.089)  charge=  2.0266  magn= -0.0010
     atom  52 (R=0.089)  charge=  2.0269  magn=  0.0184
     atom  53 (R=0.089)  charge=  2.0266  magn= -0.0010
     atom  54 (R=0.089)  charge=  2.0302  magn=  0.0027
     atom  55 (R=0.089)  charge=  1.9814  magn=  0.0017
     atom  56 (R=0.089)  charge=  2.0274  magn=  0.0009
     atom  57 (R=0.089)  charge=  2.0277  magn=  0.0010
     atom  58 (R=0.089)  charge=  2.0275  magn=  0.0016
     atom  59 (R=0.089)  charge=  2.0279  magn= -0.0008
     atom  60 (R=0.089)  charge=  2.0275  magn=  0.0016
     atom  61 (R=0.089)  charge=  2.0279  magn= -0.0008
     atom  62 (R=0.089)  charge=  2.0275  magn=  0.0016
     atom  63 (R=0.089)  charge=  2.0279  magn= -0.0008

     total cpu time spent up to now is       22.9 secs

     End of self-consistent calculation

 ------ SPIN UP ------------


          k = 0.0000 0.0000 0.0000 ( 16212 PWs)   bands (ev):

    -8.4700  -6.5621  -6.2372  -6.2372  -6.1415  -6.1415  -5.8361  -4.6639
    -4.0798  -4.0798  -4.0482  -4.0482  -4.0380  -3.9765  -3.9765  -3.9241
    -3.7769  -3.7769  -3.3386  -2.8981  -2.5910  -2.5910  -1.9211  -0.3440
    -0.2987  -0.2987  -0.2592   0.0194   0.2427   0.2427   0.2974   0.2975
     0.3670   0.6442   0.9522   0.9522   0.9621   1.0130   1.0130   1.0937
     1.1037   1.1037   1.4568   1.4568   2.9605   4.0808   4.1902   4.1902
     4.2599   4.2599   4.2762   4.3221   4.3274   4.3274   4.4364   4.4365
     4.5667   4.5667   4.6143   4.6687   4.6687   4.7045   4.7236   4.7751
     4.7751   4.8620   4.8815   4.8815   5.1722   5.3385   5.3385   5.3716
     5.3716   5.3892   5.3938   5.5237   5.5237   6.0054   6.0054   6.0352
     6.6792   6.6792   6.7417   7.1024   7.1178   7.1178   7.2545   8.4320
     8.4320   8.4393   8.5327   8.5327   8.7374   8.7374   8.8256   8.8256
     8.8426   8.8839   8.9748   8.9748   9.0062   9.2894   9.2894   9.3351
     9.8865   9.8865   9.9030   9.9188   9.9202   9.9202   9.9712   9.9712
     9.9810   9.9810   9.9951  10.0090  10.1591  10.1591  10.3510  10.3794
    10.4235  10.4236  12.2662  12.4544  12.4544  13.8780  14.8056  14.8056
    17.1819  17.4060  17.4060  17.5122  17.5122  17.5150  17.7309  17.9116
    17.9116  17.9875  17.9875  18.3034  18.7716  18.7717  18.8610  20.4664
    20.8500  20.8500  20.9115  20.9119  20.9119  20.9661  20.9661  21.0189

     occupation numbers 
     1.0000   1.0000   1.0000   1.0000   1.0000   1.0000   1.0000   1.0000
     1.0000   1.0000   1.0000   1.0000   1.0000   1.0000   1.0000   1.0000
     1.0000   1.0000   1.0000   1.0000   1.0000   1.0000   1.0000   1.0000
     1.0000   1.0000   1.0000   1.0000   1.0000   1.0000   1.0000   1.0000
     1.0000   1.0000   1.0000   1.0000   1.0000   1.0000   1.0000   1.0000
     1.0000   1.0000   1.0000   1.0000   1.0000   1.0000   1.0000   1.0000
     1.0000   1.0000   1.0000   1.0000   1.0000   1.0000   1.0000   1.0000
     1.0000   1.0000   1.0000   1.0000   1.0000   1.0000   1.0000   1.0000
     1.0000   1.0000   1.0000   1.0000   1.0000   1.0000   1.0000   1.0000
     1.0000   1.0000   1.0000   1.0000   1.0000   1.0000   1.0000   1.0000
     1.0000   1.0000   1.0000   1.0000   1.0000   1.0000   1.0000   1.0000
     1.0000   1.0000   1.0000   1.0000   1.0000   1.0000   1.0000   1.0000
     1.0000   1.0000   1.0000   1.0000   1.0000   1.0000   1.0000   1.0000
     1.0000   1.0000   1.0000   1.0000   1.0000   1.0000   1.0000   1.0000
     1.0000   1.0000   1.0000   1.0000   1.0000   1.0000   1.0000   1.0000
     1.0000   1.0000   1.0000   1.0000   1.0000   1.0000   1.0000   1.0000
     0.0000   0.0000   0.0000   0.0000   0.0000   0.0000   0.0000   0.0000
     0.0000   0.0000   0.0000   0.0000   0.0000   0.0000   0.0000   0.0000
     0.0000   0.0000   0.0000   0.0000   0.0000   0.0000   0.0000   0.0000

 ------ SPIN DOWN ----------


          k = 0.0000 0.0000 0.0000 ( 16212 PWs)   bands (ev):

    -8.4497  -6.5509  -6.2215  -6.2215  -6.1136  -6.1136  -5.8040  -4.6489
    -4.0650  -4.0650  -4.0348  -4.0348  -4.0173  -3.9569  -3.9569  -3.9154
    -3.7176  -3.7176  -3.2973  -2.8837  -2.5395  -2.5395  -1.7875  -0.3275
    -0.2811  -0.2811  -0.2382   0.0765   0.2577   0.2577   0.3249   0.3249
     0.3868   0.6798   0.9635   0.9635   0.9891   1.0310   1.0310   1.1111
     1.1181   1.1181   1.6237   1.6237   3.0948   4.1181   4.2079   4.2079
     4.2705   4.2706   4.2890   4.3429   4.3511   4.3511   4.5019   4.5019
     4.5809   4.5810   4.6222   4.6812   4.6812   4.7199   4.7555   4.8060
     4.8060   4.8721   4.9167   4.9167   5.2461   5.3526   5.3526   5.3975
     5.3975   5.3995   5.4148   5.5761   5.5761   6.0657   6.0657   6.0743
     6.7023   6.7023   6.7746   7.1440   7.2094   7.2094   7.4798   8.4524
     8.4524   8.4707   8.5696   8.5696   8.7635   8.7635   8.8348   8.8348
     8.8578   8.9111   9.0215   9.0215   9.0511   9.3258   9.3258   9.3779
     9.9142   9.9142   9.9217   9.9263   9.9326   9.9326   9.9906   9.9906
    10.0045  10.0110  10.0110  10.0377  10.1919  10.1919  10.4654  10.4984
    10.4984  10.8905  12.5050  12.5995  12.5995  14.3552  16.3541  16.3541
    17.2153  17.4213  17.4213  17.5298  17.5514  17.5515  17.7583  17.9385
    17.9385  18.0329  18.0329  18.3992  18.8265  18.8265  18.9086  20.5175
    20.8819  20.8819  20.9231  20.9254  20.9254  20.9905  20.9905  21.0272

     occupation numbers 
     1.0000   1.0000   1.0000   1.0000   1.0000   1.0000   1.0000   1.0000
     1.0000   1.0000   1.0000   1.0000   1.0000   1.0000   1.0000   1.0000
     1.0000   1.0000   1.0000   1.0000   1.0000   1.0000   1.0000   1.0000
     1.0000   1.0000   1.0000   1.0000   1.0000   1.0000   1.0000   1.0000
     1.0000   1.0000   1.0000   1.0000   1.0000   1.0000   1.0000   1.0000
     1.0000   1.0000   1.0000   1.0000   1.0000   1.0000   1.0000   1.0000
     1.0000   1.0000   1.0000   1.0000   1.0000   1.0000   1.0000   1.0000
     1.0000   1.0000   1.0000   1.0000   1.0000   1.0000   1.0000   1.0000
     1.0000   1.0000   1.0000   1.0000   1.0000   1.0000   1.0000   1.0000
     1.0000   1.0000   1.0000   1.0000   1.0000   1.0000   1.0000   1.0000
     1.0000   1.0000   1.0000   1.0000   1.0000   1.0000   1.0000   1.0000
     1.0000   1.0000   1.0000   1.0000   1.0000   1.0000   1.0000   1.0000
     1.0000   1.0000   1.0000   1.0000   1.0000   1.0000   1.0000   1.0000
     1.0000   1.0000   1.0000   1.0000   1.0000   1.0000   1.0000   1.0000
     1.0000   1.0000   1.0000   1.0000   1.0000   1.0000   1.0000   1.0000
     1.0000   1.0000   1.0000   1.0000   1.0000   1.0000   0.0000   0.0000
     0.0000   0.0000   0.0000   0.0000   0.0000   0.0000   0.0000   0.0000
     0.0000   0.0000   0.0000   0.0000   0.0000   0.0000   0.0000   0.0000
     0.0000   0.0000   0.0000   0.0000   0.0000   0.0000   0.0000   0.0000

     highest occupied, lowest unoccupied level (ev):    14.8056   16.3541

!    total energy              =    -724.36608526 Ry
     estimated scf accuracy    <          5.6E-09 Ry

     The total energy is the sum of the following terms:
     one-electron contribution =     238.59633218 Ry
     hartree contribution      =      67.35003630 Ry
     xc contribution           =    -226.47105353 Ry
     ewald contribution        =    -803.84140021 Ry

     total magnetization       =     2.00 Bohr mag/cell
     absolute magnetization    =     2.22 Bohr mag/cell

     convergence has been achieved in  14 iterations

     Forces acting on atoms (cartesian axes, Ry/au):

     atom    1 type  1   force =    -0.07529899   -0.07529899   -0.07529899
     atom    2 type  2   force =    -0.04361925    0.07313015    0.07313015
     atom    3 type  2   force =    -0.01688488   -0.02885444   -0.02885444
     atom    4 type  2   force =     0.07313015   -0.04361925    0.07313015
     atom    5 type  2   force =    -0.02885444   -0.01688488   -0.02885444
     atom    6 type  2   force =     0.07313015    0.07313015   -0.04361925
     atom    7 type  2   force =    -0.02885444   -0.02885444   -0.01688488
     atom    8 type  2   force =    -0.00331097   -0.00331097    0.00033284
     atom    9 type  2   force =    -0.00019199   -0.00019199   -0.00263971
     atom   10 type  2   force =     0.01006073   -0.00422267    0.00917004
     atom   11 type  2   force =     0.00464670   -0.03198341    0.03369985
     atom   12 type  2   force =    -0.00422267    0.01006073    0.00917004
     atom   13 type  2   force =    -0.03198341    0.00464670    0.03369985
     atom   14 type  2   force =     0.00321197    0.00321197   -0.00094648
     atom   15 type  2   force =    -0.00262894   -0.00262894    0.00228060
     atom   16 type  2   force =    -0.00331097    0.00033284   -0.00331097
     atom   17 type  2   force =    -0.00019199   -0.00263971   -0.00019199
     atom   18 type  2   force =     0.01006073    0.00917004   -0.00422267
     atom   19 type  2   force =     0.00464670    0.03369985   -0.03198341
     atom   20 type  2   force =     0.00321197   -0.00094648    0.00321197
     atom   21 type  2   force =    -0.00262894    0.00228060   -0.00262894
     atom   22 type  2   force =    -0.00422267    0.00917004    0.01006073
     atom   23 type  2   force =    -0.03198341    0.03369985    0.00464670
     atom   24 type  2   force =     0.00729501    0.00772253    0.00772253
     atom   25 type  2   force =    -0.00022633    0.00024288    0.00024288
     atom   26 type  2   force =     0.00312155   -0.00196171   -0.00196171
     atom   27 type  2   force =    -0.03838684    0.01823092    0.01823092
     atom   28 type  2   force =     0.00089987    0.00535511   -0.00557698
     atom   29 type  2   force =    -0.00428344   -0.00286821   -0.00361432
     atom   30 type  2   force =     0.00089987   -0.00557698    0.00535511
     atom   31 type  2   force =    -0.00428344   -0.00361432   -0.00286821
     atom   32 type  2   force =     0.00033284   -0.00331097   -0.00331097
     atom   33 type  2   force =    -0.00263971   -0.00019199   -0.00019199
     atom   34 type  2   force =    -0.00094648    0.00321197    0.00321197
     atom   35 type  2   force =     0.00228060   -0.00262894   -0.00262894
     atom   36 type  2   force =     0.00917004    0.01006073   -0.00422267
     atom   37 type  2   force =     0.03369985    0.00464670   -0.03198341
     atom   38 type  2   force =     0.00917004   -0.00422267    0.01006073
     atom   39 type  2   force =     0.03369985   -0.03198341    0.00464670
     atom   40 type  2   force =     0.00772253    0.00729501    0.00772253
     atom   41 type  2   force =     0.00024288   -0.00022633    0.00024288
     atom   42 type  2   force =     0.00535511    0.00089987   -0.00557698
     atom   43 type  2   force =    -0.00286821   -0.00428344   -0.00361432
     atom   44 type  2   force =    -0.00196171    0.00312155   -0.00196171
     atom   45 type  2   force =     0.01823092   -0.03838684    0.01823092
     atom   46 type  2   force =    -0.00557698    0.00089987    0.00535511
     atom   47 type  2   force =    -0.00361432   -0.00428344   -0.00286821
     atom   48 type  2   force =     0.00772253    0.00772253    0.00729501
     atom   49 type  2   force =     0.00024288    0.00024288   -0.00022633
     atom   50 type  2   force =     0.00535511   -0.00557698    0.00089987
     atom   51 type  2   force =    -0.00286821   -0.00361432   -0.00428344
     atom   52 type  2   force =    -0.00557698    0.00535511    0.00089987
     atom   53 type  2   force =    -0.00361432   -0.00286821   -0.00428344
     atom   54 type  2   force =    -0.00196171   -0.00196171    0.00312155
     atom   55 type  2   force =     0.01823092    0.01823092   -0.03838684
     atom   56 type  2   force =    -0.00039118   -0.00039118   -0.00039118
     atom   57 type  2   force =    -0.00101527   -0.00101527   -0.00101527
     atom   58 type  2   force =     0.00050655    0.00151678    0.00151678
     atom   59 type  2   force =     0.00239816    0.00334666    0.00334666
     atom   60 type  2   force =     0.00151678    0.00050655    0.00151678
     atom   61 type  2   force =     0.00334666    0.00239816    0.00334666
     atom   62 type  2   force =     0.00151678    0.00151678    0.00050655
     atom   63 type  2   force =     0.00334666    0.00334666    0.00239816
     The non-local contrib.  to forces
     atom    1 type  1   force =    -1.06696135   -1.06696135   -1.06696135
     atom    2 type  2   force =    -0.34761001    0.37408722    0.37408722
     atom    3 type  2   force =     0.05617807    0.05018439    0.05018439
     atom    4 type  2   force =     0.37408722   -0.34761001    0.37408722
     atom    5 type  2   force =     0.05018439    0.05617807    0.05018439
     atom    6 type  2   force =     0.37408722    0.37408722   -0.34761001
     atom    7 type  2   force =     0.05018439    0.05018439    0.05617807
     atom    8 type  2   force =    -0.00986011   -0.00986011    0.05471733
     atom    9 type  2   force =    -0.00355919   -0.00355919    0.01703241
     atom   10 type  2   force =    -0.03083280   -0.02333104   -0.01616632
     atom   11 type  2   force =    -0.06837174    0.03020362   -0.04511476
     atom   12 type  2   force =    -0.02333104   -0.03083280   -0.01616632
     atom   13 type  2   force =     0.03020362   -0.06837174   -0.04511476
     atom   14 type  2   force =     0.00275884    0.00275884    0.05568839
     atom   15 type  2   force =     0.01659432    0.01659432    0.00734356
     atom   16 type  2   force =    -0.00986011    0.05471733   -0.00986011
     atom   17 type  2   force =    -0.00355919    0.01703241   -0.00355919
     atom   18 type  2   force =    -0.03083280   -0.01616632   -0.02333104
     atom   19 type  2   force =    -0.06837174   -0.04511476    0.03020362
     atom   20 type  2   force =     0.00275884    0.05568839    0.00275884
     atom   21 type  2   force =     0.01659432    0.00734356    0.01659432
     atom   22 type  2   force =    -0.02333104   -0.01616632   -0.03083280
     atom   23 type  2   force =     0.03020362   -0.04511476   -0.06837174
     atom   24 type  2   force =    -0.04607905    0.03920448    0.03920448
     atom   25 type  2   force =    -0.01406414    0.01693031    0.01693031
     atom   26 type  2   force =    -0.02888117   -0.02083117   -0.02083117
     atom   27 type  2   force =    -0.14148909    0.13427907    0.13427907
     atom   28 type  2   force =     0.04468829    0.03457447   -0.02521952
     atom   29 type  2   force =     0.00152910    0.01529065   -0.00568515
     atom   30 type  2   force =     0.04468829   -0.02521952    0.03457447
     atom   31 type  2   force =     0.00152910   -0.00568515    0.01529065
     atom   32 type  2   force =     0.05471733   -0.00986011   -0.00986011
     atom   33 type  2   force =     0.01703241   -0.00355919   -0.00355919
     atom   34 type  2   force =     0.05568839    0.00275884    0.00275884
     atom   35 type  2   force =     0.00734356    0.01659432    0.01659432
     atom   36 type  2   force =    -0.01616632   -0.03083280   -0.02333104
     atom   37 type  2   force =    -0.04511476   -0.06837174    0.03020362
     atom   38 type  2   force =    -0.01616632   -0.02333104   -0.03083280
     atom   39 type  2   force =    -0.04511476    0.03020362   -0.06837174
     atom   40 type  2   force =     0.03920448   -0.04607905    0.03920448
     atom   41 type  2   force =     0.01693031   -0.01406414    0.01693031
     atom   42 type  2   force =     0.03457447    0.04468829   -0.02521952
     atom   43 type  2   force =     0.01529065    0.00152910   -0.00568515
     atom   44 type  2   force =    -0.02083117   -0.02888117   -0.02083117
     atom   45 type  2   force =     0.13427907   -0.14148909    0.13427907
     atom   46 type  2   force =    -0.02521952    0.04468829    0.03457447
     atom   47 type  2   force =    -0.00568515    0.00152910    0.01529065
     atom   48 type  2   force =     0.03920448    0.03920448   -0.04607905
     atom   49 type  2   force =     0.01693031    0.01693031   -0.01406414
     atom   50 type  2   force =     0.03457447   -0.02521952    0.04468829
     atom   51 type  2   force =     0.01529065   -0.00568515    0.00152910
     atom   52 type  2   force =    -0.02521952    0.03457447    0.04468829
     atom   53 type  2   force =    -0.00568515    0.01529065    0.00152910
     atom   54 type  2   force =    -0.02083117   -0.02083117   -0.02888117
     atom   55 type  2   force =     0.13427907    0.13427907   -0.14148909
     atom   56 type  2   force =     0.01409960    0.01409960    0.01409960
     atom   57 type  2   force =     0.00429360    0.00429360    0.00429360
     atom   58 type  2   force =     0.00949455   -0.00635692   -0.00635692
     atom   59 type  2   force =     0.01444801   -0.01777010   -0.01777010
     atom   60 type  2   force =    -0.00635692    0.00949455   -0.00635692
     atom   61 type  2   force =    -0.01777010    0.01444801   -0.01777010
     atom   62 type  2   force =    -0.00635692   -0.00635692    0.00949455
     atom   63 type  2   force =    -0.01777010   -0.01777010    0.01444801
     The ionic contribution  to forces
     atom    1 type  1   force =     2.60584076    2.60584076    2.60584076
     atom    2 type  2   force =     2.08467261   -1.87684212   -1.87684212
     atom    3 type  2   force =     0.03105908   -0.77926397   -0.77926397
     atom    4 type  2   force =    -1.87684212    2.08467261   -1.87684212
     atom    5 type  2   force =    -0.77926397    0.03105908   -0.77926397
     atom    6 type  2   force =    -1.87684212   -1.87684212    2.08467261
     atom    7 type  2   force =    -0.77926397   -0.77926397    0.03105908
     atom    8 type  2   force =     0.27856298    0.27856298   -0.57657837
     atom    9 type  2   force =     0.06964075    0.06964075   -0.14414459
     atom   10 type  2   force =     0.27856298   -0.07073249    0.36874787
     atom   11 type  2   force =     0.06964075   -0.68717739    0.76168124
     atom   12 type  2   force =    -0.07073249    0.27856298    0.36874787
     atom   13 type  2   force =    -0.68717739    0.06964075    0.76168124
     atom   14 type  2   force =    -0.23161290   -0.23161290   -0.57657837
     atom   15 type  2   force =    -0.15983964   -0.15983964   -0.02796070
     atom   16 type  2   force =     0.27856298   -0.57657837    0.27856298
     atom   17 type  2   force =     0.06964075   -0.14414459    0.06964075
     atom   18 type  2   force =     0.27856298    0.36874787   -0.07073249
     atom   19 type  2   force =     0.06964075    0.76168124   -0.68717739
     atom   20 type  2   force =    -0.23161290   -0.57657837   -0.23161290
     atom   21 type  2   force =    -0.15983964   -0.02796070   -0.15983964
     atom   22 type  2   force =    -0.07073249    0.36874787    0.27856298
     atom   23 type  2   force =    -0.68717739    0.76168124    0.06964075
     atom   24 type  2   force =     0.12423631   -0.20823205   -0.20823205
     atom   25 type  2   force =     0.03105908   -0.05205801   -0.05205801
     atom   26 type  2   force =     0.12423631    0.00040156    0.00040156
     atom   27 type  2   force =     0.52116815    0.31015383    0.31015383
     atom   28 type  2   force =    -0.07728623   -0.20823205    0.16128197
     atom   29 type  2   force =    -0.13574233   -0.05205801    0.15674126
     atom   30 type  2   force =    -0.07728623    0.16128197   -0.20823205
     atom   31 type  2   force =    -0.13574233    0.15674126   -0.05205801
     atom   32 type  2   force =    -0.57657837    0.27856298    0.27856298
     atom   33 type  2   force =    -0.14414459    0.06964075    0.06964075
     atom   34 type  2   force =    -0.57657837   -0.23161290   -0.23161290
     atom   35 type  2   force =    -0.02796070   -0.15983964   -0.15983964
     atom   36 type  2   force =     0.36874787    0.27856298   -0.07073249
     atom   37 type  2   force =     0.76168124    0.06964075   -0.68717739
     atom   38 type  2   force =     0.36874787   -0.07073249    0.27856298
     atom   39 type  2   force =     0.76168124   -0.68717739    0.06964075
     atom   40 type  2   force =    -0.20823205    0.12423631   -0.20823205
     atom   41 type  2   force =    -0.05205801    0.03105908   -0.05205801
     atom   42 type  2   force =    -0.20823205   -0.07728623    0.16128197
     atom   43 type  2   force =    -0.05205801   -0.13574233    0.15674126
     atom   44 type  2   force =     0.00040156    0.12423631    0.00040156
     atom   45 type  2   force =     0.31015383    0.52116815    0.31015383
     atom   46 type  2   force =     0.16128197   -0.07728623   -0.20823205
     atom   47 type  2   force =     0.15674126   -0.13574233   -0.05205801
     atom   48 type  2   force =    -0.20823205   -0.20823205    0.12423631
     atom   49 type  2   force =    -0.05205801   -0.05205801    0.03105908
     atom   50 type  2   force =    -0.20823205    0.16128197   -0.07728623
     atom   51 type  2   force =    -0.05205801    0.15674126   -0.13574233
     atom   52 type  2   force =     0.16128197   -0.20823205   -0.07728623
     atom   53 type  2   force =     0.15674126   -0.05205801   -0.13574233
     atom   54 type  2   force =     0.00040156    0.00040156    0.12423631
     atom   55 type  2   force =     0.31015383    0.31015383    0.52116815
     atom   56 type  2   force =    -0.11184280   -0.11184280   -0.11184280
     atom   57 type  2   force =    -0.02796070   -0.02796070   -0.02796070
     atom   58 type  2   force =    -0.11184280    0.06489271    0.06489271
     atom   59 type  2   force =    -0.14414459    0.11815959    0.11815959
     atom   60 type  2   force =     0.06489271   -0.11184280    0.06489271
     atom   61 type  2   force =     0.11815959   -0.14414459    0.11815959
     atom   62 type  2   force =     0.06489271    0.06489271   -0.11184280
     atom   63 type  2   force =     0.11815959    0.11815959   -0.14414459
     The local contribution  to forces
     atom    1 type  1   force =    -1.61418986   -1.61415716   -1.61413047
     atom    2 type  2   force =    -1.78068217    1.57586371    1.57587597
     atom    3 type  2   force =    -0.10412738    0.70019010    0.70019226
     atom    4 type  2   force =     1.57587766   -1.78066742    1.57588506
     atom    5 type  2   force =     0.70020786   -0.10412125    0.70019557
     atom    6 type  2   force =     1.57588884    1.57588408   -1.78065826
     atom    7 type  2   force =     0.70021482    0.70020229   -0.10410181
     atom    8 type  2   force =    -0.27201601   -0.27199991    0.52214058
     atom    9 type  2   force =    -0.06627415   -0.06627048    0.12441846
     atom   10 type  2   force =    -0.23768451    0.08983928   -0.34342984
     atom   11 type  2   force =     0.00336659    0.62497508   -0.68285717
     atom   12 type  2   force =     0.08985034   -0.23767196   -0.34343175
     atom   13 type  2   force =     0.62499149    0.00336937   -0.68286136
     atom   14 type  2   force =     0.23205933    0.23205162    0.51988841
     atom   15 type  2   force =     0.14061512    0.14060183    0.02285812
     atom   16 type  2   force =    -0.27202459    0.52215788   -0.27199698
     atom   17 type  2   force =    -0.06627364    0.12444143   -0.06626090
     atom   18 type  2   force =    -0.23767543   -0.34341889    0.08983543
     atom   19 type  2   force =     0.00338026   -0.68285264    0.62496030
     atom   20 type  2   force =     0.23206419    0.51990461    0.23206094
     atom   21 type  2   force =     0.14061236    0.02287441    0.14059507
     atom   22 type  2   force =     0.08984809   -0.34342208   -0.23765554
     atom   23 type  2   force =     0.62498382   -0.68286524    0.00338896
     atom   24 type  2   force =    -0.07087699    0.17671406    0.17670945
     atom   25 type  2   force =    -0.01722073    0.03534336    0.03533561
     atom   26 type  2   force =    -0.09224968    0.01844791    0.01844895
     atom   27 type  2   force =    -0.41806434   -0.42620183   -0.42619104
     atom   28 type  2   force =     0.03350419    0.17899404   -0.14165956
     atom   29 type  2   force =     0.12993574    0.03387906   -0.15467350
     atom   30 type  2   force =     0.03350690   -0.14164955    0.17897668
     atom   31 type  2   force =     0.12993198   -0.15467698    0.03386334
     atom   32 type  2   force =     0.52217581   -0.27201512   -0.27200118
     atom   33 type  2   force =     0.12445198   -0.06627072   -0.06625978
     atom   34 type  2   force =     0.51992069    0.23205687    0.23206283
     atom   35 type  2   force =     0.02288071    0.14059519    0.14059167
     atom   36 type  2   force =    -0.34342536   -0.23765686    0.08983506
     atom   37 type  2   force =    -0.68286735    0.00338929    0.62495323
     atom   38 type  2   force =    -0.34342533    0.08983395   -0.23764948
     atom   39 type  2   force =    -0.68287468    0.62496000    0.00339537
     atom   40 type  2   force =     0.17673099   -0.07086418    0.17671239
     atom   41 type  2   force =     0.03534566   -0.01722321    0.03533505
     atom   42 type  2   force =     0.17900453    0.03349245   -0.14165907
     atom   43 type  2   force =     0.03387983    0.12992197   -0.15467227
     atom   44 type  2   force =     0.01843720   -0.09223759    0.01845007
     atom   45 type  2   force =    -0.42621540   -0.41806495   -0.42618461
     atom   46 type  2   force =    -0.14165457    0.03349537    0.17896839
     atom   47 type  2   force =    -0.15469024    0.12991510    0.03385925
     atom   48 type  2   force =     0.17673997    0.17672867   -0.07085427
     atom   49 type  2   force =     0.03534535    0.03534343   -0.01721834
     atom   50 type  2   force =     0.17899502   -0.14165003    0.03349471
     atom   51 type  2   force =     0.03387253   -0.15467553    0.12991460
     atom   52 type  2   force =    -0.14165662    0.17897650    0.03349545
     atom   53 type  2   force =    -0.15469196    0.03386638    0.12991193
     atom   54 type  2   force =     0.01843808    0.01845073   -0.09223009
     atom   55 type  2   force =    -0.42620808   -0.42618762   -0.41805871
     atom   56 type  2   force =     0.09734064    0.09732995    0.09732096
     atom   57 type  2   force =     0.02263159    0.02263208    0.02262488
     atom   58 type  2   force =     0.10284664   -0.05703735   -0.05703854
     atom   59 type  2   force =     0.13206699   -0.09705386   -0.09704686
     atom   60 type  2   force =    -0.05704769    0.10283523   -0.05703783
     atom   61 type  2   force =    -0.09707087    0.13206488   -0.09704648
     atom   62 type  2   force =    -0.05704960   -0.05703675    0.10282775
     atom   63 type  2   force =    -0.09707224   -0.09705314    0.13205738
     The core correction contribution to forces
     atom    1 type  1   force =     0.00000000    0.00000000    0.00000000
     atom    2 type  2   force =     0.00000000    0.00000000    0.00000000
     atom    3 type  2   force =     0.00000000    0.00000000    0.00000000
     atom    4 type  2   force =     0.00000000    0.00000000    0.00000000
     atom    5 type  2   force =     0.00000000    0.00000000    0.00000000
     atom    6 type  2   force =     0.00000000    0.00000000    0.00000000
     atom    7 type  2   force =     0.00000000    0.00000000    0.00000000
     atom    8 type  2   force =     0.00000000    0.00000000    0.00000000
     atom    9 type  2   force =     0.00000000    0.00000000    0.00000000
     atom   10 type  2   force =     0.00000000    0.00000000    0.00000000
     atom   11 type  2   force =     0.00000000    0.00000000    0.00000000
     atom   12 type  2   force =     0.00000000    0.00000000    0.00000000
     atom   13 type  2   force =     0.00000000    0.00000000    0.00000000
     atom   14 type  2   force =     0.00000000    0.00000000    0.00000000
     atom   15 type  2   force =     0.00000000    0.00000000    0.00000000
     atom   16 type  2   force =     0.00000000    0.00000000    0.00000000
     atom   17 type  2   force =     0.00000000    0.00000000    0.00000000
     atom   18 type  2   force =     0.00000000    0.00000000    0.00000000
     atom   19 type  2   force =     0.00000000    0.00000000    0.00000000
     atom   20 type  2   force =     0.00000000    0.00000000    0.00000000
     atom   21 type  2   force =     0.00000000    0.00000000    0.00000000
     atom   22 type  2   force =     0.00000000    0.00000000    0.00000000
     atom   23 type  2   force =     0.00000000    0.00000000    0.00000000
     atom   24 type  2   force =     0.00000000    0.00000000    0.00000000
     atom   25 type  2   force =     0.00000000    0.00000000    0.00000000
     atom   26 type  2   force =     0.00000000    0.00000000    0.00000000
     atom   27 type  2   force =     0.00000000    0.00000000    0.00000000
     atom   28 type  2   force =     0.00000000    0.00000000    0.00000000
     atom   29 type  2   force =     0.00000000    0.00000000    0.00000000
     atom   30 type  2   force =     0.00000000    0.00000000    0.00000000
     atom   31 type  2   force =     0.00000000    0.00000000    0.00000000
     atom   32 type  2   force =     0.00000000    0.00000000    0.00000000
     atom   33 type  2   force =     0.00000000    0.00000000    0.00000000
     atom   34 type  2   force =     0.00000000    0.00000000    0.00000000
     atom   35 type  2   force =     0.00000000    0.00000000    0.00000000
     atom   36 type  2   force =     0.00000000    0.00000000    0.00000000
     atom   37 type  2   force =     0.00000000    0.00000000    0.00000000
     atom   38 type  2   force =     0.00000000    0.00000000    0.00000000
     atom   39 type  2   force =     0.00000000    0.00000000    0.00000000
     atom   40 type  2   force =     0.00000000    0.00000000    0.00000000
     atom   41 type  2   force =     0.00000000    0.00000000    0.00000000
     atom   42 type  2   force =     0.00000000    0.00000000    0.00000000
     atom   43 type  2   force =     0.00000000    0.00000000    0.00000000
     atom   44 type  2   force =     0.00000000    0.00000000    0.00000000
     atom   45 type  2   force =     0.00000000    0.00000000    0.00000000
     atom   46 type  2   force =     0.00000000    0.00000000    0.00000000
     atom   47 type  2   force =     0.00000000    0.00000000    0.00000000
     atom   48 type  2   force =     0.00000000    0.00000000    0.00000000
     atom   49 type  2   force =     0.00000000    0.00000000    0.00000000
     atom   50 type  2   force =     0.00000000    0.00000000    0.00000000
     atom   51 type  2   force =     0.00000000    0.00000000    0.00000000
     atom   52 type  2   force =     0.00000000    0.00000000    0.00000000
     atom   53 type  2   force =     0.00000000    0.00000000    0.00000000
     atom   54 type  2   force =     0.00000000    0.00000000    0.00000000
     atom   55 type  2   force =     0.00000000    0.00000000    0.00000000
     atom   56 type  2   force =     0.00000000    0.00000000    0.00000000
     atom   57 type  2   force =     0.00000000    0.00000000    0.00000000
     atom   58 type  2   force =     0.00000000    0.00000000    0.00000000
     atom   59 type  2   force =     0.00000000    0.00000000    0.00000000
     atom   60 type  2   force =     0.00000000    0.00000000    0.00000000
     atom   61 type  2   force =     0.00000000    0.00000000    0.00000000
     atom   62 type  2   force =     0.00000000    0.00000000    0.00000000
     atom   63 type  2   force =     0.00000000    0.00000000    0.00000000
     The Hubbard contrib.    to forces
     atom    1 type  1   force =     0.00000000    0.00000000    0.00000000
     atom    2 type  2   force =     0.00000000    0.00000000    0.00000000
     atom    3 type  2   force =     0.00000000    0.00000000    0.00000000
     atom    4 type  2   force =     0.00000000    0.00000000    0.00000000
     atom    5 type  2   force =     0.00000000    0.00000000    0.00000000
     atom    6 type  2   force =     0.00000000    0.00000000    0.00000000
     atom    7 type  2   force =     0.00000000    0.00000000    0.00000000
     atom    8 type  2   force =     0.00000000    0.00000000    0.00000000
     atom    9 type  2   force =     0.00000000    0.00000000    0.00000000
     atom   10 type  2   force =     0.00000000    0.00000000    0.00000000
     atom   11 type  2   force =     0.00000000    0.00000000    0.00000000
     atom   12 type  2   force =     0.00000000    0.00000000    0.00000000
     atom   13 type  2   force =     0.00000000    0.00000000    0.00000000
     atom   14 type  2   force =     0.00000000    0.00000000    0.00000000
     atom   15 type  2   force =     0.00000000    0.00000000    0.00000000
     atom   16 type  2   force =     0.00000000    0.00000000    0.00000000
     atom   17 type  2   force =     0.00000000    0.00000000    0.00000000
     atom   18 type  2   force =     0.00000000    0.00000000    0.00000000
     atom   19 type  2   force =     0.00000000    0.00000000    0.00000000
     atom   20 type  2   force =     0.00000000    0.00000000    0.00000000
     atom   21 type  2   force =     0.00000000    0.00000000    0.00000000
     atom   22 type  2   force =     0.00000000    0.00000000    0.00000000
     atom   23 type  2   force =     0.00000000    0.00000000    0.00000000
     atom   24 type  2   force =     0.00000000    0.00000000    0.00000000
     atom   25 type  2   force =     0.00000000    0.00000000    0.00000000
     atom   26 type  2   force =     0.00000000    0.00000000    0.00000000
     atom   27 type  2   force =     0.00000000    0.00000000    0.00000000
     atom   28 type  2   force =     0.00000000    0.00000000    0.00000000
     atom   29 type  2   force =     0.00000000    0.00000000    0.00000000
     atom   30 type  2   force =     0.00000000    0.00000000    0.00000000
     atom   31 type  2   force =     0.00000000    0.00000000    0.00000000
     atom   32 type  2   force =     0.00000000    0.00000000    0.00000000
     atom   33 type  2   force =     0.00000000    0.00000000    0.00000000
     atom   34 type  2   force =     0.00000000    0.00000000    0.00000000
     atom   35 type  2   force =     0.00000000    0.00000000    0.00000000
     atom   36 type  2   force =     0.00000000    0.00000000    0.00000000
     atom   37 type  2   force =     0.00000000    0.00000000    0.00000000
     atom   38 type  2   force =     0.00000000    0.00000000    0.00000000
     atom   39 type  2   force =     0.00000000    0.00000000    0.00000000
     atom   40 type  2   force =     0.00000000    0.00000000    0.00000000
     atom   41 type  2   force =     0.00000000    0.00000000    0.00000000
     atom   42 type  2   force =     0.00000000    0.00000000    0.00000000
     atom   43 type  2   force =     0.00000000    0.00000000    0.00000000
     atom   44 type  2   force =     0.00000000    0.00000000    0.00000000
     atom   45 type  2   force =     0.00000000    0.00000000    0.00000000
     atom   46 type  2   force =     0.00000000    0.00000000    0.00000000
     atom   47 type  2   force =     0.00000000    0.00000000    0.00000000
     atom   48 type  2   force =     0.00000000    0.00000000    0.00000000
     atom   49 type  2   force =     0.00000000    0.00000000    0.00000000
     atom   50 type  2   force =     0.00000000    0.00000000    0.00000000
     atom   51 type  2   force =     0.00000000    0.00000000    0.00000000
     atom   52 type  2   force =     0.00000000    0.00000000    0.00000000
     atom   53 type  2   force =     0.00000000    0.00000000    0.00000000
     atom   54 type  2   force =     0.00000000    0.00000000    0.00000000
     atom   55 type  2   force =     0.00000000    0.00000000    0.00000000
     atom   56 type  2   force =     0.00000000    0.00000000    0.00000000
     atom   57 type  2   force =     0.00000000    0.00000000    0.00000000
     atom   58 type  2   force =     0.00000000    0.00000000    0.00000000
     atom   59 type  2   force =     0.00000000    0.00000000    0.00000000
     atom   60 type  2   force =     0.00000000    0.00000000    0.00000000
     atom   61 type  2   force =     0.00000000    0.00000000    0.00000000
     atom   62 type  2   force =     0.00000000    0.00000000    0.00000000
     atom   63 type  2   force =     0.00000000    0.00000000    0.00000000
     The SCF correction term to forces
     atom    1 type  1   force =     0.00000284   -0.00003255   -0.00006236
     atom    2 type  2   force =    -0.00000216    0.00000466   -0.00000934
     atom    3 type  2   force =    -0.00000315    0.00002688    0.00002520
     atom    4 type  2   force =    -0.00000635   -0.00002494   -0.00001196
     atom    5 type  2   force =     0.00000345   -0.00001186    0.00002000
     atom    6 type  2   force =    -0.00000838   -0.00000237   -0.00004495
     atom    7 type  2   force =    -0.00000646    0.00001010   -0.00003501
     atom    8 type  2   force =    -0.00000510   -0.00002686    0.00004636
     atom    9 type  2   force =    -0.00000974   -0.00001404    0.00004485
     atom   10 type  2   force =     0.00000698   -0.00000728    0.00000781
     atom   11 type  2   force =     0.00000144    0.00000360   -0.00002173
     atom   12 type  2   force =    -0.00002102   -0.00000810    0.00001063
     atom   13 type  2   force =    -0.00001645   -0.00000147   -0.00001835
     atom   14 type  2   force =    -0.00000572    0.00000336    0.00004739
     atom   15 type  2   force =    -0.00001216    0.00000450    0.00003084
     atom   16 type  2   force =     0.00000471    0.00002486   -0.00003336
     atom   17 type  2   force =    -0.00001103    0.00001920   -0.00002508
     atom   18 type  2   force =    -0.00000265   -0.00000629   -0.00000564
     atom   19 type  2   force =    -0.00001329   -0.00002656    0.00001987
     atom   20 type  2   force =    -0.00000905    0.00002769   -0.00000791
     atom   21 type  2   force =    -0.00001012    0.00001105    0.00001134
     atom   22 type  2   force =    -0.00002075   -0.00000151   -0.00002851
     atom   23 type  2   force =    -0.00000681   -0.00001451   -0.00002456
     atom   24 type  2   force =     0.00000506    0.00002547    0.00003140
     atom   25 type  2   force =    -0.00001046    0.00001494    0.00002685
     atom   26 type  2   force =     0.00000736    0.00000887    0.00000749
     atom   27 type  2   force =    -0.00001064   -0.00001320   -0.00002644
     atom   28 type  2   force =    -0.00001905    0.00000699    0.00000836
     atom   29 type  2   force =    -0.00002087    0.00000713   -0.00001064
     atom   30 type  2   force =    -0.00002162   -0.00000286    0.00002717
     atom   31 type  2   force =    -0.00001812   -0.00000407    0.00002689
     atom   32 type  2   force =     0.00000180   -0.00000863   -0.00002869
     atom   33 type  2   force =     0.00000713   -0.00001364   -0.00002677
     atom   34 type  2   force =     0.00000734    0.00000021   -0.00000919
     atom   35 type  2   force =     0.00000374    0.00000997    0.00001483
     atom   36 type  2   force =     0.00000171   -0.00002451   -0.00000633
     atom   37 type  2   force =    -0.00000809   -0.00002230    0.00002810
     atom   38 type  2   force =     0.00000309   -0.00000464   -0.00003482
     atom   39 type  2   force =    -0.00000073    0.00002128   -0.00003217
     atom   40 type  2   force =     0.00000545   -0.00000927    0.00002848
     atom   41 type  2   force =     0.00001108   -0.00000848    0.00002742
     atom   42 type  2   force =    -0.00000693   -0.00000617    0.00000856
     atom   43 type  2   force =     0.00000520   -0.00000202   -0.00001306
     atom   44 type  2   force =     0.00002116   -0.00000740    0.00000533
     atom   45 type  2   force =     0.00000575   -0.00001220   -0.00003158
     atom   46 type  2   force =     0.00000425   -0.00000732    0.00003584
     atom   47 type  2   force =     0.00001259    0.00000363    0.00003091
     atom   48 type  2   force =    -0.00000421    0.00000976   -0.00002143
     atom   49 type  2   force =     0.00001120    0.00001491   -0.00001691
     atom   50 type  2   force =     0.00000371   -0.00000160   -0.00000836
     atom   51 type  2   force =     0.00001399   -0.00000874    0.00000712
     atom   52 type  2   force =     0.00000743    0.00002555   -0.00000842
     atom   53 type  2   force =     0.00001309    0.00002169    0.00000898
     atom   54 type  2   force =     0.00001909    0.00000383   -0.00001774
     atom   55 type  2   force =    -0.00000017   -0.00002639   -0.00002121
     atom   56 type  2   force =    -0.00000377    0.00001064    0.00002327
     atom   57 type  2   force =     0.00000855    0.00000779    0.00001624
     atom   58 type  2   force =    -0.00000615    0.00000474    0.00000764
     atom   59 type  2   force =     0.00001508    0.00000015   -0.00000884
     atom   60 type  2   force =     0.00001789    0.00000827    0.00000779
     atom   61 type  2   force =     0.00002050    0.00001768   -0.00001009
     atom   62 type  2   force =     0.00002111    0.00000582    0.00001830
     atom   63 type  2   force =     0.00001952   -0.00000347    0.00002786

     Total force =     0.287845     Total SCF correction =     0.000245


     Computing stress (Cartesian axis) and pressure

          total   stress  (Ry/bohr**3)                   (kbar)     P=       89.72
   0.00060992   0.00008662   0.00008662           89.72       12.74       12.74
   0.00008662   0.00060992   0.00008662           12.74       89.72       12.74
   0.00008662   0.00008662   0.00060992           12.74       12.74       89.72

     kinetic stress (kbar)  21644.09     53.46     53.46
                               53.46  21644.09     53.46
                               53.46     53.46  21644.09

     local   stress (kbar)  -3784.16     44.94     44.94
                               44.94  -3784.16     44.94
                               44.94     44.94  -3784.16

     nonloc. stress (kbar)   1187.22    -11.23    -11.23
                              -11.23   1187.22    -11.23
                              -11.23    -11.23   1187.22

     hartree stress (kbar)   1347.87    -22.68    -22.68
                              -22.68   1347.87    -22.68
                              -22.68    -22.68   1347.87

     exc-cor stress (kbar)  -4218.07     -0.18     -0.18
                               -0.18  -4218.07     -0.18
                               -0.18     -0.18  -4218.07

     corecor stress (kbar)      0.00      0.00      0.00
                                0.00      0.00      0.00
                                0.00      0.00      0.00

     ewald   stress (kbar) -16087.21    -51.57    -51.57
                              -51.57 -16087.21    -51.57
                              -51.57    -51.57 -16087.21

     hubbard stress (kbar)      0.00      0.00      0.00
                                0.00      0.00      0.00
                                0.00      0.00      0.00

     DFT-D   stress (kbar)      0.00      0.00      0.00
                                0.00      0.00      0.00
                                0.00      0.00      0.00

     XDM     stress (kbar)      0.00      0.00      0.00
                                0.00      0.00      0.00
                                0.00      0.00      0.00

     dft-nl  stress (kbar)      0.00      0.00      0.00
                                0.00      0.00      0.00
                                0.00      0.00      0.00

     TS-vdW  stress (kbar)      0.00      0.00      0.00
                                0.00      0.00      0.00
                                0.00      0.00      0.00

     MDB     stress (kbar)      0.00      0.00      0.00
                                0.00      0.00      0.00
                                0.00      0.00      0.00

     3D-RISM stress (kbar)      0.00      0.00      0.00
                                0.00      0.00      0.00
                                0.00      0.00      0.00


     BFGS Geometry Optimization
     Energy error            =      8.3E-02 Ry
     Gradient error          =      7.5E-02 Ry/Bohr

     number of scf cycles    =   1
     number of bfgs steps    =   0

     energy             new  =    -724.3660852601 Ry

     new trust radius        =       0.1304216792 bohr
     new conv_thr            =       0.0000000100 Ry


ATOMIC_POSITIONS (angstrom)
N               -0.0398465104       -0.0398465104       -0.0398465104
C               -0.0230823153        1.8221988069        1.8221988069
C                0.8828149048        2.6599808856        2.6599808856
C                1.8221988069       -0.0230823153        1.8221988069
C                2.6599808856        0.8828149048        2.6599808856
C                1.8221988069        1.8221988069       -0.0230823153
C                2.6599808856        2.6599808856        0.8828149048
C               -0.0017520875       -0.0017520875        3.5671761307
C                0.8916484037        0.8916484037        4.4573531235
C                0.0053239071        1.7812654617        5.3553525763
C                0.8942089291        2.6583251106        6.2600831943
C                1.7812654617        0.0053239071        5.3553525763
C                2.6583251106        0.8942089291        6.2600831943
C                1.7851997023        1.7851997023        3.5664991422
C                2.6738588261        2.6738588261        4.4599568406
C               -0.0017520875        3.5671761307       -0.0017520875
C                0.8916484037        4.4573531235        0.8916484037
C                0.0053239071        5.3553525763        1.7812654617
C                0.8942089291        6.2600831943        2.6583251106
C                1.7851997023        3.5664991422        1.7851997023
C                2.6738588261        4.4599568406        2.6738588261
C                1.7812654617        5.3553525763        0.0053239071
C                2.6583251106        6.2600831943        0.8942089291
C                0.0038603549        3.5710865844        3.5710865844
C                0.8916302333        4.4588785284        4.4588785284
C                0.0016518520        5.3494619084        5.3494619084
C                0.8714365574        6.2518973861        6.2518973861
C                1.7839761924        3.5698338042        5.3475487874
C                2.6729833036        4.4572322063        6.2403373840
C                1.7839761924        5.3475487874        3.5698338042
C                2.6729833036        6.2403373840        4.4572322063
C                3.5671761307       -0.0017520875       -0.0017520875
C                4.4573531235        0.8916484037        0.8916484037
C                3.5664991422        1.7851997023        1.7851997023
C                4.4599568406        2.6738588261        2.6738588261
C                5.3553525763        0.0053239071        1.7812654617
C                6.2600831943        0.8942089291        2.6583251106
C                5.3553525763        1.7812654617        0.0053239071
C                6.2600831943        2.6583251106        0.8942089291
C                3.5710865844        0.0038603549        3.5710865844
C                4.4588785284        0.8916302333        4.4588785284
C                3.5698338042        1.7839761924        5.3475487874
C                4.4572322063        2.6729833036        6.2403373840
C                5.3494619084        0.0016518520        5.3494619084
C                6.2518973861        0.8714365574        6.2518973861
C                5.3475487874        1.7839761924        3.5698338042
C                6.2403373840        2.6729833036        4.4572322063
C                3.5710865844        3.5710865844        0.0038603549
C                4.4588785284        4.4588785284        0.8916302333
C                3.5698338042        5.3475487874        1.7839761924
C                4.4572322063        6.2403373840        2.6729833036
C                5.3475487874        3.5698338042        1.7839761924
[...]
     atom    9 type  2   force =     0.00000000    0.00000000    0.00000000
     atom   10 type  2   force =     0.00000000    0.00000000    0.00000000
     atom   11 type  2   force =     0.00000000    0.00000000    0.00000000
     atom   12 type  2   force =     0.00000000    0.00000000    0.00000000
     atom   13 type  2   force =     0.00000000    0.00000000    0.00000000
     atom   14 type  2   force =     0.00000000    0.00000000    0.00000000
     atom   15 type  2   force =     0.00000000    0.00000000    0.00000000
     atom   16 type  2   force =     0.00000000    0.00000000    0.00000000
     atom   17 type  2   force =     0.00000000    0.00000000    0.00000000
     atom   18 type  2   force =     0.00000000    0.00000000    0.00000000
     atom   19 type  2   force =     0.00000000    0.00000000    0.00000000
     atom   20 type  2   force =     0.00000000    0.00000000    0.00000000
     atom   21 type  2   force =     0.00000000    0.00000000    0.00000000
     atom   22 type  2   force =     0.00000000    0.00000000    0.00000000
     atom   23 type  2   force =     0.00000000    0.00000000    0.00000000
     atom   24 type  2   force =     0.00000000    0.00000000    0.00000000
     atom   25 type  2   force =     0.00000000    0.00000000    0.00000000
     atom   26 type  2   force =     0.00000000    0.00000000    0.00000000
     atom   27 type  2   force =     0.00000000    0.00000000    0.00000000
     atom   28 type  2   force =     0.00000000    0.00000000    0.00000000
     atom   29 type  2   force =     0.00000000    0.00000000    0.00000000
     atom   30 type  2   force =     0.00000000    0.00000000    0.00000000
     atom   31 type  2   force =     0.00000000    0.00000000    0.00000000
     atom   32 type  2   force =     0.00000000    0.00000000    0.00000000
     atom   33 type  2   force =     0.00000000    0.00000000    0.00000000
     atom   34 type  2   force =     0.00000000    0.00000000    0.00000000
     atom   35 type  2   force =     0.00000000    0.00000000    0.00000000
     atom   36 type  2   force =     0.00000000    0.00000000    0.00000000
     atom   37 type  2   force =     0.00000000    0.00000000    0.00000000
     atom   38 type  2   force =     0.00000000    0.00000000    0.00000000
     atom   39 type  2   force =     0.00000000    0.00000000    0.00000000
     atom   40 type  2   force =     0.00000000    0.00000000    0.00000000
     atom   41 type  2   force =     0.00000000    0.00000000    0.00000000
     atom   42 type  2   force =     0.00000000    0.00000000    0.00000000
     atom   43 type  2   force =     0.00000000    0.00000000    0.00000000
     atom   44 type  2   force =     0.00000000    0.00000000    0.00000000
     atom   45 type  2   force =     0.00000000    0.00000000    0.00000000
     atom   46 type  2   force =     0.00000000    0.00000000    0.00000000
     atom   47 type  2   force =     0.00000000    0.00000000    0.00000000
     atom   48 type  2   force =     0.00000000    0.00000000    0.00000000
     atom   49 type  2   force =     0.00000000    0.00000000    0.00000000
     atom   50 type  2   force =     0.00000000    0.00000000    0.00000000
     atom   51 type  2   force =     0.00000000    0.00000000    0.00000000
     atom   52 type  2   force =     0.00000000    0.00000000    0.00000000
     atom   53 type  2   force =     0.00000000    0.00000000    0.00000000
     atom   54 type  2   force =     0.00000000    0.00000000    0.00000000
     atom   55 type  2   force =     0.00000000    0.00000000    0.00000000
     atom   56 type  2   force =     0.00000000    0.00000000    0.00000000
     atom   57 type  2   force =     0.00000000    0.00000000    0.00000000
     atom   58 type  2   force =     0.00000000    0.00000000    0.00000000
     atom   59 type  2   force =     0.00000000    0.00000000    0.00000000
     atom   60 type  2   force =     0.00000000    0.00000000    0.00000000
     atom   61 type  2   force =     0.00000000    0.00000000    0.00000000
     atom   62 type  2   force =     0.00000000    0.00000000    0.00000000
     atom   63 type  2   force =     0.00000000    0.00000000    0.00000000
     The SCF correction term to forces
     atom    1 type  1   force =     0.00000031    0.00000011    0.00000066
     atom    2 type  2   force =    -0.00000142   -0.00000302   -0.00000254
     atom    3 type  2   force =    -0.00000435   -0.00000212   -0.00000197
     atom    4 type  2   force =    -0.00000285   -0.00000157   -0.00000254
     atom    5 type  2   force =    -0.00000216   -0.00000468   -0.00000206
     atom    6 type  2   force =    -0.00000283   -0.00000299   -0.00000119
     atom    7 type  2   force =    -0.00000190   -0.00000194   -0.00000381
     atom    8 type  2   force =     0.00000027    0.00000009    0.00000010
     atom    9 type  2   force =    -0.00000105   -0.00000125    0.00000233
     atom   10 type  2   force =     0.00000126   -0.00000251    0.00000202
     atom   11 type  2   force =     0.00000009   -0.00000319    0.00000097
     atom   12 type  2   force =    -0.00000241    0.00000116    0.00000199
     atom   13 type  2   force =    -0.00000320   -0.00000005    0.00000101
     atom   14 type  2   force =    -0.00000310   -0.00000332    0.00000180
     atom   15 type  2   force =    -0.00000020   -0.00000024    0.00000392
     atom   16 type  2   force =     0.00000005    0.00000055    0.00000033
     atom   17 type  2   force =    -0.00000108    0.00000302   -0.00000077
     atom   18 type  2   force =     0.00000146    0.00000250   -0.00000225
     atom   19 type  2   force =     0.00000056    0.00000129   -0.00000345
     atom   20 type  2   force =    -0.00000309    0.00000228   -0.00000277
     atom   21 type  2   force =    -0.00000028    0.00000455   -0.00000023
     atom   22 type  2   force =    -0.00000242    0.00000250    0.00000163
     atom   23 type  2   force =    -0.00000346    0.00000121    0.00000082
     atom   24 type  2   force =    -0.00000309    0.00000043    0.00000019
     atom   25 type  2   force =    -0.00000187    0.00000167    0.00000122
     atom   26 type  2   force =    -0.00000318    0.00000237    0.00000208
     atom   27 type  2   force =    -0.00000225    0.00000172    0.00000178
     atom   28 type  2   force =    -0.00000003   -0.00000066    0.00000201
     atom   29 type  2   force =     0.00000067    0.00000054    0.00000004
     atom   30 type  2   force =     0.00000001    0.00000254   -0.00000116
     atom   31 type  2   force =     0.00000061    0.00000012   -0.00000010
     atom   32 type  2   force =     0.00000038   -0.00000004    0.00000042
     atom   33 type  2   force =     0.00000276   -0.00000127   -0.00000075
     atom   34 type  2   force =     0.00000210   -0.00000330   -0.00000276
     atom   35 type  2   force =     0.00000430   -0.00000028   -0.00000020
     atom   36 type  2   force =     0.00000231    0.00000128   -0.00000224
     atom   37 type  2   force =     0.00000122    0.00000023   -0.00000336
     atom   38 type  2   force =     0.00000234   -0.00000251    0.00000155
     atom   39 type  2   force =     0.00000110   -0.00000336    0.00000062
     atom   40 type  2   force =     0.00000022   -0.00000319    0.00000008
     atom   41 type  2   force =     0.00000148   -0.00000201    0.00000120
     atom   42 type  2   force =    -0.00000077   -0.00000013    0.00000200
     atom   43 type  2   force =     0.00000040    0.00000068    0.00000003
     atom   44 type  2   force =     0.00000227   -0.00000329    0.00000208
     atom   45 type  2   force =     0.00000172   -0.00000239    0.00000175
     atom   46 type  2   force =     0.00000233   -0.00000011   -0.00000108
     atom   47 type  2   force =     0.00000008    0.00000064    0.00000001
     atom   48 type  2   force =     0.00000050    0.00000060   -0.00000293
     atom   49 type  2   force =     0.00000151    0.00000168   -0.00000164
     atom   50 type  2   force =    -0.00000101    0.00000254    0.00000019
     atom   51 type  2   force =     0.00000016    0.00000012    0.00000065
     atom   52 type  2   force =     0.00000234   -0.00000081    0.00000017
     atom   53 type  2   force =     0.00000009    0.00000040    0.00000067
     atom   54 type  2   force =     0.00000229    0.00000238   -0.00000301
     atom   55 type  2   force =     0.00000182    0.00000178   -0.00000199
     atom   56 type  2   force =     0.00000192    0.00000202    0.00000174
     atom   57 type  2   force =     0.00000237    0.00000251    0.00000212
     atom   58 type  2   force =     0.00000240    0.00000065    0.00000034
     atom   59 type  2   force =     0.00000359   -0.00000076   -0.00000073
     atom   60 type  2   force =     0.00000056    0.00000250    0.00000036
     atom   61 type  2   force =    -0.00000076    0.00000373   -0.00000076
     atom   62 type  2   force =     0.00000053    0.00000064    0.00000225
     atom   63 type  2   force =    -0.00000072   -0.00000075    0.00000333

     Total force =     0.002171     Total SCF correction =     0.000027


     Computing stress (Cartesian axis) and pressure

          total   stress  (Ry/bohr**3)                   (kbar)     P=      106.67
   0.00072515   0.00010276   0.00010276          106.67       15.12       15.12
   0.00010276   0.00072515   0.00010276           15.12      106.67       15.12
   0.00010276   0.00010276   0.00072515           15.12       15.12      106.67

     kinetic stress (kbar)  21698.52     55.96     55.96
                               55.96  21698.52     55.96
                               55.96     55.96  21698.52

     local   stress (kbar)  -3927.86     31.58     31.58
                               31.58  -3927.86     31.58
                               31.58     31.58  -3927.86

     nonloc. stress (kbar)   1162.63    -11.86    -11.86
                              -11.86   1162.63    -11.86
                              -11.86    -11.86   1162.63

     hartree stress (kbar)   1408.51    -29.52    -29.52
                              -29.52   1408.51    -29.52
                              -29.52    -29.52   1408.51

     exc-cor stress (kbar)  -4223.41     -0.15     -0.15
                               -0.15  -4223.41     -0.15
                               -0.15     -0.15  -4223.41

     corecor stress (kbar)      0.00      0.00      0.00
                                0.00      0.00      0.00
                                0.00      0.00      0.00

     ewald   stress (kbar) -16011.71    -30.90    -30.90
                              -30.90 -16011.71    -30.90
                              -30.90    -30.90 -16011.71

     hubbard stress (kbar)      0.00      0.00      0.00
                                0.00      0.00      0.00
                                0.00      0.00      0.00

     DFT-D   stress (kbar)      0.00      0.00      0.00
                                0.00      0.00      0.00
                                0.00      0.00      0.00

     XDM     stress (kbar)      0.00      0.00      0.00
                                0.00      0.00      0.00
                                0.00      0.00      0.00

     dft-nl  stress (kbar)      0.00      0.00      0.00
                                0.00      0.00      0.00
                                0.00      0.00      0.00

     TS-vdW  stress (kbar)      0.00      0.00      0.00
                                0.00      0.00      0.00
                                0.00      0.00      0.00

     MDB     stress (kbar)      0.00      0.00      0.00
                                0.00      0.00      0.00
                                0.00      0.00      0.00

     3D-RISM stress (kbar)      0.00      0.00      0.00
                                0.00      0.00      0.00
                                0.00      0.00      0.00

     Energy error            =      1.3E-05 Ry
     Gradient error          =      3.7E-04 Ry/Bohr

     bfgs converged in   8 scf cycles and   7 bfgs steps
     (criteria: energy <  1.0E-04 Ry, force <  3.9E-04 Ry/Bohr)

     End of BFGS Geometry Optimization

     Final energy             =    -724.4402882188 Ry

     File ./pwscf.bfgs deleted, as requested
Begin final coordinates

ATOMIC_POSITIONS (angstrom)
N               -0.0932536408       -0.0932536408       -0.0932536408
C               -0.0560803994        1.8602797873        1.8602797873
C                0.8824624526        2.6730014749        2.6730014749
C                1.8602797873       -0.0560803994        1.8602797873
C                2.6730014749        0.8824624526        2.6730014749
C                1.8602797873        1.8602797873       -0.0560803994
C                2.6730014749        2.6730014749        0.8824624526
C                0.0053628077        0.0053628077        3.5588578671
C                0.8926710942        0.8926710942        4.4591182377
C                0.0102530769        1.7668116086        5.3661348020
C                0.9033993912        2.6615135122        6.2601310315
C                1.7668116086        0.0102530769        5.3661348020
C                2.6615135122        0.9033993912        6.2601310315
C                1.7824063555        1.7824063555        3.5643365787
C                2.6748670259        2.6748670259        4.4582362930
C                0.0053628077        3.5588578671        0.0053628077
C                0.8926710942        4.4591182377        0.8926710942
C                0.0102530769        5.3661348020        1.7668116086
C                0.9033993912        6.2601310315        2.6615135122
C                1.7824063555        3.5643365787        1.7824063555
C                2.6748670259        4.4582362930        2.6748670259
C                1.7668116086        5.3661348020        0.0102530769
C                2.6615135122        6.2601310315        0.9033993912
C                0.0072170168        3.5771757048        3.5771757048
C                0.8920215306        4.4593578100        4.4593578100
C               -0.0021824840        5.3389464583        5.3389464583
C                0.8487459898        6.2433810610        6.2433810610
C                1.7808533714        3.5740643721        5.3468060753
C                2.6684846133        4.4668356410        6.2452673284
C                1.7808533714        5.3468060753        3.5740643721
C                2.6684846133        6.2452673284        4.4668356410
C                3.5588578671        0.0053628077        0.0053628077
C                4.4591182377        0.8926710942        0.8926710942
C                3.5643365787        1.7824063555        1.7824063555
C                4.4582362930        2.6748670259        2.6748670259
C                5.3661348020        0.0102530769        1.7668116086
C                6.2601310315        0.9033993912        2.6615135122
C                5.3661348020        1.7668116086        0.0102530769
C                6.2601310315        2.6615135122        0.9033993912
C                3.5771757048        0.0072170168        3.5771757048
C                4.4593578100        0.8920215306        4.4593578100
C                3.5740643721        1.7808533714        5.3468060753
C                4.4668356410        2.6684846133        6.2452673284
C                5.3389464583       -0.0021824840        5.3389464583
C                6.2433810610        0.8487459898        6.2433810610
C                5.3468060753        1.7808533714        3.5740643721
C                6.2452673284        2.6684846133        4.4668356410
C                3.5771757048        3.5771757048        0.0072170168
C                4.4593578100        4.4593578100        0.8920215306
C                3.5740643721        5.3468060753        1.7808533714
C                4.4668356410        6.2452673284        2.6684846133
C                5.3468060753        3.5740643721        1.7808533714
C                6.2452673284        4.4668356410        2.6684846133
C                5.3389464583        5.3389464583       -0.0021824840
C                6.2433810610        6.2433810610        0.8487459898
C                3.5668266124        3.5668266124        3.5668266124
C                4.4584193037        4.4584193037        4.4584193037
C                3.5605487458        5.3532123240        5.3532123240
C                4.4482864204        6.2421280102        6.2421280102
C                5.3532123240        3.5605487458        5.3532123240
C                6.2421280102        4.4482864204        6.2421280102
C                5.3532123240        5.3532123240        3.5605487458
C                6.2421280102        6.2421280102        4.4482864204
End final coordinates



     Writing all to output data dir ./pwscf.save/ :
     XML data file, charge density, pseudopotentials, collected wavefunctions
 
     init_run     :      0.45s CPU      0.68s WALL (       1 calls)
     electrons    :     93.27s CPU     94.60s WALL (       8 calls)
     update_pot   :      1.09s CPU      1.10s WALL (       7 calls)
     forces       :      2.39s CPU      2.41s WALL (       8 calls)
     stress       :      4.67s CPU      5.21s WALL (       8 calls)

     Called by init_run:
     wfcinit      :      0.15s CPU      0.18s WALL (       1 calls)
     wfcinit:wfcr :      0.15s CPU      0.17s WALL (       1 calls)
     potinit      :      0.16s CPU      0.17s WALL (       1 calls)
     hinit0       :      0.06s CPU      0.26s WALL (       1 calls)

     Called by electrons:
     c_bands      :     70.67s CPU     71.36s WALL (      77 calls)
     sum_band     :     10.89s CPU     10.97s WALL (      77 calls)
     v_of_rho     :      8.28s CPU      8.49s WALL (      82 calls)
     v_h          :      0.99s CPU      1.00s WALL (      82 calls)
     v_xc         :      7.29s CPU      7.49s WALL (      82 calls)
     mix_rho      :      0.54s CPU      0.54s WALL (      77 calls)

     Called by c_bands:
     init_us_2    :      0.35s CPU      0.38s WALL (     163 calls)
     regterg      :     52.32s CPU     52.92s WALL (      79 calls)

     Called by sum_band:
     sum_band:wei :      0.07s CPU      0.08s WALL (      77 calls)
     sum_band:loo :      7.58s CPU      7.64s WALL (      77 calls)
     sum_band:buf :      0.00s CPU      0.00s WALL (      77 calls)
     sum_band:ini :      0.16s CPU      0.18s WALL (      77 calls)

     Called by *egterg:
     rdiaghg      :     24.86s CPU     25.14s WALL (    1474 calls)
     regterg:over :      1.89s CPU      1.92s WALL (    1406 calls)
     regterg:upda :      1.40s CPU      1.41s WALL (    1406 calls)
     regterg:last :      1.49s CPU      1.50s WALL (     273 calls)
     rdiaghg:chol :      0.81s CPU      0.82s WALL (    1474 calls)
     rdiaghg:inve :      0.16s CPU      0.24s WALL (    1474 calls)
     rdiaghg:para :      2.13s CPU      2.16s WALL (    2948 calls)
     h_psi        :     22.35s CPU     22.58s WALL (    1486 calls)
     g_psi        :      0.04s CPU      0.04s WALL (    1406 calls)

     Called by h_psi:
     h_psi:calbec :      2.38s CPU      2.43s WALL (    1486 calls)
     vloc_psi     :     18.46s CPU     18.63s WALL (    1486 calls)
                                        0.00s GPU  (    1486 calls)
     add_vuspsi   :      1.42s CPU      1.44s WALL (    1486 calls)

     General routines
     calbec       :      8.54s CPU      9.12s WALL (    1622 calls)
     fft          :      4.59s CPU      4.94s WALL (    1148 calls)
     ffts         :      0.09s CPU      0.09s WALL (      77 calls)
     fftw         :     25.00s CPU     25.19s WALL (   52908 calls)
 
     Parallel routines
 
     PWSCF        :   1m58.58s CPU   2m 1.79s WALL

 
   This run was terminated on:  19:17:38   1Nov2025            

=------------------------------------------------------------------------------=
   JOB DONE.
=------------------------------------------------------------------------------=
