
     Program PWSCF v.7.5 starts on  4Nov2025 at 18:18: 4 

     This program is part of the open-source Quantum ESPRESSO suite
     for quantum simulation of materials; please cite
         "P. Giannozzi et al., J. Phys.:Condens. Matter 21 395502 (2009);
         "P. Giannozzi et al., J. Phys.:Condens. Matter 29 465901 (2017);
         "P. Giannozzi et al., J. Chem. Phys. 152 154105 (2020);
          URL http://www.quantum-espresso.org", 
     in publications or presentations arising from this work. More details at
     http://www.quantum-espresso.org/quote

     Parallel version (MPI), running on    96 processors

     MPI processes distributed on     2 nodes
     142473 MiB available memory on the printing compute node when the environment starts
 
     Reading input from pw.in
Warning: card &FCP ignored
Warning: card &RISM ignored

     Current dimensions of program PWSCF are:
     Max number of different atomic species (ntypx) = 10
     Max number of k-points (npk) =  40000
     Max angular momentum in pseudopotentials (lmaxx) =  4

     gamma-point specific algorithms are used
     Message from routine setup:
     using ibrav=0 with symmetry is DISCOURAGED, use correct ibrav instead
 
     K-points division:     npool     =       2
     R & G space division:  proc/nbgrp/npool/nimage =      48
     Subspace diagonalization in iterative solution of the eigenvalue problem:
     one sub-group per band group will be used
     scalapack distributed-memory algorithm (size of sub-group:  2*  2 procs)

 
     Parallelization info
     --------------------
     sticks:   dense  smooth     PW     G-vecs:    dense   smooth      PW
     Min          71      71     18                 3192     3192     398
     Max          74      74     20                 3204     3204     406
     Sum        3457    3457    869               153507   153507   19309
 
     Using Slab Decomposition
 


     bravais-lattice index     =            0
     lattice parameter (alat)  =      13.4813  a.u.
     unit-cell volume          =    2450.1683 (a.u.)^3
     number of atoms/cell      =           63
     number of atomic types    =            2
     number of electrons       =       254.00 (up: 128.00, down: 126.00)
     number of Kohn-Sham states=          152
     kinetic-energy cutoff     =      60.0000  Ry
     charge density cutoff     =     240.0000  Ry
     scf convergence threshold =      1.0E-08
     mixing beta               =       0.7000
     number of iterations used =            8  plain     mixing
     energy convergence thresh.=      1.0E-04
     force convergence thresh. =      1.0E-03
     Exchange-correlation= PBE
                           (   1   4   3   4   0   0   0)
     nstep                     =           50


     celldm(1)=  13.481306  celldm(2)=   0.000000  celldm(3)=   0.000000
     celldm(4)=   0.000000  celldm(5)=   0.000000  celldm(6)=   0.000000

     crystal axes: (cart. coord. in units of alat)
               a(1) = (   1.000000   0.000000   0.000000 )  
               a(2) = (   0.000000   1.000000   0.000000 )  
               a(3) = (   0.000000   0.000000   1.000000 )  

     reciprocal axes: (cart. coord. in units 2 pi/alat)
               b(1) = (  1.000000  0.000000  0.000000 )  
               b(2) = (  0.000000  1.000000  0.000000 )  
               b(3) = (  0.000000  0.000000  1.000000 )  


     PseudoPot. # 1 for N  read from file:
     /home/sstaylor/espresso/pseudo/N_ONCV_PBE-1.2.upf
     MD5 check sum: c233fa8df51455e992258b7c3dee8a9f
     Pseudo is Norm-conserving, Zval =  5.0
     Generated using ONCVPSP code by D. R. Hamann
     Using radial grid of  602 points,  4 beta functions with: 
                l(1) =   0
                l(2) =   0
                l(3) =   1
                l(4) =   1

     PseudoPot. # 2 for C  read from file:
     /home/sstaylor/espresso/pseudo/C_ONCV_PBE-1.2.upf
     MD5 check sum: 1a5f83a7b1f58d24996abe00ed223ac6
     Pseudo is Norm-conserving, Zval =  4.0
     Generated using ONCVPSP code by D. R. Hamann
     Using radial grid of  602 points,  4 beta functions with: 
                l(1) =   0
                l(2) =   0
                l(3) =   1
                l(4) =   1

     atomic species   valence    mass     pseudopotential
     N                 5.00    14.00700     N ( 1.00)
     C                 4.00    12.01100     C ( 1.00)

     Starting magnetic structure 
     atomic species   magnetization
     N               0.000
     C               0.000

      6 Sym. Ops. (no inversion) found


                                    s                        frac. trans.

      isym =  1     identity                                     

 cryst.   s( 1) = (     1          0          0      )
                  (     0          1          0      )
                  (     0          0          1      )

 cart.    s( 1) = (  1.0000000  0.0000000  0.0000000 )
                  (  0.0000000  1.0000000  0.0000000 )
                  (  0.0000000  0.0000000  1.0000000 )


      isym =  2     120 deg rotation - cart. axis [-1,-1,-1]     

 cryst.   s( 2) = (     0          0          1      )
                  (     1          0          0      )
                  (     0          1          0      )

 cart.    s( 2) = (  0.0000000  1.0000000  0.0000000 )
                  (  0.0000000  0.0000000  1.0000000 )
                  (  1.0000000  0.0000000  0.0000000 )


      isym =  3     120 deg rotation - cart. axis [1,1,1]        

 cryst.   s( 3) = (     0          1          0      )
                  (     0          0          1      )
                  (     1          0          0      )

 cart.    s( 3) = (  0.0000000  0.0000000  1.0000000 )
                  (  1.0000000  0.0000000  0.0000000 )
                  (  0.0000000  1.0000000  0.0000000 )


      isym =  4     inv. 180 deg rotation - cart. axis [1,-1,0]  

 cryst.   s( 4) = (     0          1          0      )
                  (     1          0          0      )
                  (     0          0          1      )

 cart.    s( 4) = (  0.0000000  1.0000000  0.0000000 )
                  (  1.0000000  0.0000000  0.0000000 )
                  (  0.0000000  0.0000000  1.0000000 )


      isym =  5     inv. 180 deg rotation - cart. axis [-1,0,1]  

 cryst.   s( 5) = (     0          0          1      )
                  (     0          1          0      )
                  (     1          0          0      )

 cart.    s( 5) = (  0.0000000  0.0000000  1.0000000 )
                  (  0.0000000  1.0000000  0.0000000 )
                  (  1.0000000  0.0000000  0.0000000 )


      isym =  6     inv. 180 deg rotation - cart. axis [0,1,-1]  

 cryst.   s( 6) = (     1          0          0      )
                  (     0          0          1      )
                  (     0          1          0      )

 cart.    s( 6) = (  1.0000000  0.0000000  0.0000000 )
                  (  0.0000000  0.0000000  1.0000000 )
                  (  0.0000000  1.0000000  0.0000000 )


   Cartesian axes

     site n.     atom                  positions (alat units)
         1        N      tau(   1) = (   0.0000000   0.0000000   0.0000000  )
         2        C      tau(   2) = (   0.0000000   0.2500000   0.2500000  )
         3        C      tau(   3) = (   0.1250000   0.3750000   0.3750000  )
         4        C      tau(   4) = (   0.2500000   0.0000000   0.2500000  )
         5        C      tau(   5) = (   0.3750000   0.1250000   0.3750000  )
         6        C      tau(   6) = (   0.2500000   0.2500000   0.0000000  )
         7        C      tau(   7) = (   0.3750000   0.3750000   0.1250000  )
         8        C      tau(   8) = (   0.0000000   0.0000000   0.5000000  )
         9        C      tau(   9) = (   0.1250000   0.1250000   0.6250000  )
        10        C      tau(  10) = (   0.0000000   0.2500000   0.7500000  )
        11        C      tau(  11) = (   0.1250000   0.3750000   0.8750000  )
        12        C      tau(  12) = (   0.2500000   0.0000000   0.7500000  )
        13        C      tau(  13) = (   0.3750000   0.1250000   0.8750000  )
        14        C      tau(  14) = (   0.2500000   0.2500000   0.5000000  )
        15        C      tau(  15) = (   0.3750000   0.3750000   0.6250000  )
        16        C      tau(  16) = (   0.0000000   0.5000000   0.0000000  )
        17        C      tau(  17) = (   0.1250000   0.6250000   0.1250000  )
        18        C      tau(  18) = (   0.0000000   0.7500000   0.2500000  )
        19        C      tau(  19) = (   0.1250000   0.8750000   0.3750000  )
        20        C      tau(  20) = (   0.2500000   0.5000000   0.2500000  )
        21        C      tau(  21) = (   0.3750000   0.6250000   0.3750000  )
        22        C      tau(  22) = (   0.2500000   0.7500000   0.0000000  )
        23        C      tau(  23) = (   0.3750000   0.8750000   0.1250000  )
        24        C      tau(  24) = (   0.0000000   0.5000000   0.5000000  )
        25        C      tau(  25) = (   0.1250000   0.6250000   0.6250000  )
        26        C      tau(  26) = (   0.0000000   0.7500000   0.7500000  )
        27        C      tau(  27) = (   0.1250000   0.8750000   0.8750000  )
        28        C      tau(  28) = (   0.2500000   0.5000000   0.7500000  )
        29        C      tau(  29) = (   0.3750000   0.6250000   0.8750000  )
        30        C      tau(  30) = (   0.2500000   0.7500000   0.5000000  )
        31        C      tau(  31) = (   0.3750000   0.8750000   0.6250000  )
        32        C      tau(  32) = (   0.5000000   0.0000000   0.0000000  )
        33        C      tau(  33) = (   0.6250000   0.1250000   0.1250000  )
        34        C      tau(  34) = (   0.5000000   0.2500000   0.2500000  )
        35        C      tau(  35) = (   0.6250000   0.3750000   0.3750000  )
        36        C      tau(  36) = (   0.7500000   0.0000000   0.2500000  )
        37        C      tau(  37) = (   0.8750000   0.1250000   0.3750000  )
        38        C      tau(  38) = (   0.7500000   0.2500000   0.0000000  )
        39        C      tau(  39) = (   0.8750000   0.3750000   0.1250000  )
        40        C      tau(  40) = (   0.5000000   0.0000000   0.5000000  )
        41        C      tau(  41) = (   0.6250000   0.1250000   0.6250000  )
        42        C      tau(  42) = (   0.5000000   0.2500000   0.7500000  )
        43        C      tau(  43) = (   0.6250000   0.3750000   0.8750000  )
        44        C      tau(  44) = (   0.7500000   0.0000000   0.7500000  )
        45        C      tau(  45) = (   0.8750000   0.1250000   0.8750000  )
        46        C      tau(  46) = (   0.7500000   0.2500000   0.5000000  )
        47        C      tau(  47) = (   0.8750000   0.3750000   0.6250000  )
        48        C      tau(  48) = (   0.5000000   0.5000000   0.0000000  )
        49        C      tau(  49) = (   0.6250000   0.6250000   0.1250000  )
        50        C      tau(  50) = (   0.5000000   0.7500000   0.2500000  )
        51        C      tau(  51) = (   0.6250000   0.8750000   0.3750000  )
        52        C      tau(  52) = (   0.7500000   0.5000000   0.2500000  )
        53        C      tau(  53) = (   0.8750000   0.6250000   0.3750000  )
        54        C      tau(  54) = (   0.7500000   0.7500000   0.0000000  )
        55        C      tau(  55) = (   0.8750000   0.8750000   0.1250000  )
        56        C      tau(  56) = (   0.5000000   0.5000000   0.5000000  )
        57        C      tau(  57) = (   0.6250000   0.6250000   0.6250000  )
        58        C      tau(  58) = (   0.5000000   0.7500000   0.7500000  )
        59        C      tau(  59) = (   0.6250000   0.8750000   0.8750000  )
        60        C      tau(  60) = (   0.7500000   0.5000000   0.7500000  )
        61        C      tau(  61) = (   0.8750000   0.6250000   0.8750000  )
        62        C      tau(  62) = (   0.7500000   0.7500000   0.5000000  )
        63        C      tau(  63) = (   0.8750000   0.8750000   0.6250000  )

   Crystallographic axes

     site n.     atom                  positions (cryst. coord.)
         1        N      tau(   1) = (  0.0000000  0.0000000  0.0000000  )
         2        C      tau(   2) = (  0.0000000  0.2500000  0.2500000  )
         3        C      tau(   3) = (  0.1250000  0.3750000  0.3750000  )
         4        C      tau(   4) = (  0.2500000  0.0000000  0.2500000  )
         5        C      tau(   5) = (  0.3750000  0.1250000  0.3750000  )
         6        C      tau(   6) = (  0.2500000  0.2500000  0.0000000  )
         7        C      tau(   7) = (  0.3750000  0.3750000  0.1250000  )
         8        C      tau(   8) = (  0.0000000  0.0000000  0.5000000  )
         9        C      tau(   9) = (  0.1250000  0.1250000  0.6250000  )
        10        C      tau(  10) = (  0.0000000  0.2500000  0.7500000  )
        11        C      tau(  11) = (  0.1250000  0.3750000  0.8750000  )
        12        C      tau(  12) = (  0.2500000  0.0000000  0.7500000  )
        13        C      tau(  13) = (  0.3750000  0.1250000  0.8750000  )
        14        C      tau(  14) = (  0.2500000  0.2500000  0.5000000  )
        15        C      tau(  15) = (  0.3750000  0.3750000  0.6250000  )
        16        C      tau(  16) = (  0.0000000  0.5000000  0.0000000  )
        17        C      tau(  17) = (  0.1250000  0.6250000  0.1250000  )
        18        C      tau(  18) = (  0.0000000  0.7500000  0.2500000  )
        19        C      tau(  19) = (  0.1250000  0.8750000  0.3750000  )
        20        C      tau(  20) = (  0.2500000  0.5000000  0.2500000  )
        21        C      tau(  21) = (  0.3750000  0.6250000  0.3750000  )
        22        C      tau(  22) = (  0.2500000  0.7500000  0.0000000  )
        23        C      tau(  23) = (  0.3750000  0.8750000  0.1250000  )
        24        C      tau(  24) = (  0.0000000  0.5000000  0.5000000  )
        25        C      tau(  25) = (  0.1250000  0.6250000  0.6250000  )
        26        C      tau(  26) = (  0.0000000  0.7500000  0.7500000  )
        27        C      tau(  27) = (  0.1250000  0.8750000  0.8750000  )
        28        C      tau(  28) = (  0.2500000  0.5000000  0.7500000  )
        29        C      tau(  29) = (  0.3750000  0.6250000  0.8750000  )
        30        C      tau(  30) = (  0.2500000  0.7500000  0.5000000  )
        31        C      tau(  31) = (  0.3750000  0.8750000  0.6250000  )
        32        C      tau(  32) = (  0.5000000  0.0000000  0.0000000  )
        33        C      tau(  33) = (  0.6250000  0.1250000  0.1250000  )
        34        C      tau(  34) = (  0.5000000  0.2500000  0.2500000  )
        35        C      tau(  35) = (  0.6250000  0.3750000  0.3750000  )
        36        C      tau(  36) = (  0.7500000  0.0000000  0.2500000  )
        37        C      tau(  37) = (  0.8750000  0.1250000  0.3750000  )
        38        C      tau(  38) = (  0.7500000  0.2500000  0.0000000  )
        39        C      tau(  39) = (  0.8750000  0.3750000  0.1250000  )
        40        C      tau(  40) = (  0.5000000  0.0000000  0.5000000  )
        41        C      tau(  41) = (  0.6250000  0.1250000  0.6250000  )
        42        C      tau(  42) = (  0.5000000  0.2500000  0.7500000  )
        43        C      tau(  43) = (  0.6250000  0.3750000  0.8750000  )
        44        C      tau(  44) = (  0.7500000  0.0000000  0.7500000  )
        45        C      tau(  45) = (  0.8750000  0.1250000  0.8750000  )
        46        C      tau(  46) = (  0.7500000  0.2500000  0.5000000  )
        47        C      tau(  47) = (  0.8750000  0.3750000  0.6250000  )
        48        C      tau(  48) = (  0.5000000  0.5000000  0.0000000  )
        49        C      tau(  49) = (  0.6250000  0.6250000  0.1250000  )
        50        C      tau(  50) = (  0.5000000  0.7500000  0.2500000  )
        51        C      tau(  51) = (  0.6250000  0.8750000  0.3750000  )
        52        C      tau(  52) = (  0.7500000  0.5000000  0.2500000  )
        53        C      tau(  53) = (  0.8750000  0.6250000  0.3750000  )
        54        C      tau(  54) = (  0.7500000  0.7500000  0.0000000  )
        55        C      tau(  55) = (  0.8750000  0.8750000  0.1250000  )
        56        C      tau(  56) = (  0.5000000  0.5000000  0.5000000  )
        57        C      tau(  57) = (  0.6250000  0.6250000  0.6250000  )
        58        C      tau(  58) = (  0.5000000  0.7500000  0.7500000  )
        59        C      tau(  59) = (  0.6250000  0.8750000  0.8750000  )
        60        C      tau(  60) = (  0.7500000  0.5000000  0.7500000  )
        61        C      tau(  61) = (  0.8750000  0.6250000  0.8750000  )
        62        C      tau(  62) = (  0.7500000  0.7500000  0.5000000  )
        63        C      tau(  63) = (  0.8750000  0.8750000  0.6250000  )

     number of k points=     1
                       cart. coord. in units 2pi/alat
        k(    1) = (   0.0000000   0.0000000   0.0000000), wk =   1.0000000

                       cryst. coord.
        k(    1) = (   0.0000000   0.0000000   0.0000000), wk =   1.0000000

     Dense  grid:    76754 G-vectors     FFT dimensions: (  72,  72,  72)

     Occupations read from input 

      Spin-up

        1.0000   1.0000   1.0000   1.0000   1.0000   1.0000   1.0000   1.0000
        1.0000   1.0000   1.0000   1.0000   1.0000   1.0000   1.0000   1.0000
        1.0000   1.0000   1.0000   1.0000   1.0000   1.0000   1.0000   1.0000
        1.0000   1.0000   1.0000   1.0000   1.0000   1.0000   1.0000   1.0000
        1.0000   1.0000   1.0000   1.0000   1.0000   1.0000   1.0000   1.0000
        1.0000   1.0000   1.0000   1.0000   1.0000   1.0000   1.0000   1.0000
        1.0000   1.0000   1.0000   1.0000   1.0000   1.0000   1.0000   1.0000
        1.0000   1.0000   1.0000   1.0000   1.0000   1.0000   1.0000   1.0000
        1.0000   1.0000   1.0000   1.0000   1.0000   1.0000   1.0000   1.0000
        1.0000   1.0000   1.0000   1.0000   1.0000   1.0000   1.0000   1.0000
        1.0000   1.0000   1.0000   1.0000   1.0000   1.0000   1.0000   1.0000
        1.0000   1.0000   1.0000   1.0000   1.0000   1.0000   1.0000   1.0000
        1.0000   1.0000   1.0000   1.0000   1.0000   1.0000   1.0000   1.0000
        1.0000   1.0000   1.0000   1.0000   1.0000   1.0000   1.0000   1.0000
        1.0000   1.0000   1.0000   1.0000   1.0000   1.0000   1.0000   1.0000
        1.0000   1.0000   1.0000   1.0000   1.0000   1.0000   1.0000   1.0000
        0.0000   0.0000   0.0000   0.0000   0.0000   0.0000   0.0000   0.0000
        0.0000   0.0000   0.0000   0.0000   0.0000   0.0000   0.0000   0.0000
        0.0000   0.0000   0.0000   0.0000   0.0000   0.0000   0.0000   0.0000

      Spin-down

        1.0000   1.0000   1.0000   1.0000   1.0000   1.0000   1.0000   1.0000
        1.0000   1.0000   1.0000   1.0000   1.0000   1.0000   1.0000   1.0000
        1.0000   1.0000   1.0000   1.0000   1.0000   1.0000   1.0000   1.0000
        1.0000   1.0000   1.0000   1.0000   1.0000   1.0000   1.0000   1.0000
        1.0000   1.0000   1.0000   1.0000   1.0000   1.0000   1.0000   1.0000
        1.0000   1.0000   1.0000   1.0000   1.0000   1.0000   1.0000   1.0000
        1.0000   1.0000   1.0000   1.0000   1.0000   1.0000   1.0000   1.0000
        1.0000   1.0000   1.0000   1.0000   1.0000   1.0000   1.0000   1.0000
        1.0000   1.0000   1.0000   1.0000   1.0000   1.0000   1.0000   1.0000
        1.0000   1.0000   1.0000   1.0000   1.0000   1.0000   1.0000   1.0000
        1.0000   1.0000   1.0000   1.0000   1.0000   1.0000   1.0000   1.0000
        1.0000   1.0000   1.0000   1.0000   1.0000   1.0000   1.0000   1.0000
        1.0000   1.0000   1.0000   1.0000   1.0000   1.0000   1.0000   1.0000
        1.0000   1.0000   1.0000   1.0000   1.0000   1.0000   1.0000   1.0000
        1.0000   1.0000   1.0000   1.0000   1.0000   1.0000   1.0000   1.0000
        1.0000   1.0000   1.0000   1.0000   1.0000   0.0000   1.0000   0.0000
        0.0000   0.0000   0.0000   0.0000   0.0000   0.0000   0.0000   0.0000
        0.0000   0.0000   0.0000   0.0000   0.0000   0.0000   0.0000   0.0000
        0.0000   0.0000   0.0000   0.0000   0.0000   0.0000   0.0000   0.0000

     Dynamical RAM for                 wfc:       0.46 MB

     Dynamical RAM for     wfc (w. buffer):       0.46 MB

     Dynamical RAM for           str. fact:       0.05 MB

     Dynamical RAM for           local pot:       0.00 MB

     Dynamical RAM for          nlocal pot:       1.54 MB

     Dynamical RAM for                qrad:       0.71 MB

     Dynamical RAM for          rho,v,vnew:       0.62 MB

     Dynamical RAM for               rhoin:       0.21 MB

     Dynamical RAM for            rho*nmix:       0.78 MB

     Dynamical RAM for           G-vectors:       0.10 MB

     Dynamical RAM for          h,s,v(r/c):       0.53 MB

     Dynamical RAM for          <psi|beta>:       0.58 MB

     Dynamical RAM for                 psi:       0.93 MB

     Dynamical RAM for                hpsi:       0.93 MB

     Dynamical RAM for      wfcinit/wfcrot:       1.46 MB

     Estimated static dynamical RAM per process >       4.24 MB

     Estimated max dynamical RAM per process >       7.99 MB

     Estimated total dynamical RAM >     729.77 MB
     Generating pointlists ...
     new r_m :   0.0893 (alat units)  1.2040 (a.u.) for type    1
     new r_m :   0.0893 (alat units)  1.2040 (a.u.) for type    2

     Initial potential from superposition of free atoms

     starting charge     252.5655, renormalised to     254.0000
     Starting wfcs are random

     total cpu time spent up to now is        1.7 secs

     Self-consistent Calculation

     iteration #  1     ecut=    60.00 Ry     beta= 0.70
     Davidson diagonalization with overlap

---- Real-time Memory Report at c_bands before calling an iterative solver
           161 MiB given to the printing process from OS
             0 MiB allocation reported by mallinfo(arena+hblkhd)
        141350 MiB available memory on the node where the printing process lives
------------------
     ethr =  1.00E-02,  avg # of iterations = 14.0

     total cpu time spent up to now is        3.1 secs

     total energy              =    -723.37841329 Ry
     estimated scf accuracy    <       3.84524302 Ry

     total magnetization       =     2.00 Bohr mag/cell
     absolute magnetization    =     2.00 Bohr mag/cell

     iteration #  2     ecut=    60.00 Ry     beta= 0.70
     Davidson diagonalization with overlap

---- Real-time Memory Report at c_bands before calling an iterative solver
           166 MiB given to the printing process from OS
             0 MiB allocation reported by mallinfo(arena+hblkhd)
        141252 MiB available memory on the node where the printing process lives
------------------
     ethr =  1.51E-03,  avg # of iterations = 14.0

     total cpu time spent up to now is        4.2 secs

     total energy              =    -722.77176870 Ry
     estimated scf accuracy    <       3.14516069 Ry

     total magnetization       =     2.00 Bohr mag/cell
     absolute magnetization    =     2.05 Bohr mag/cell

     iteration #  3     ecut=    60.00 Ry     beta= 0.70
     Davidson diagonalization with overlap

---- Real-time Memory Report at c_bands before calling an iterative solver
           168 MiB given to the printing process from OS
             0 MiB allocation reported by mallinfo(arena+hblkhd)
        141257 MiB available memory on the node where the printing process lives
------------------
     ethr =  1.24E-03,  avg # of iterations = 17.0

     total cpu time spent up to now is        4.8 secs

     total energy              =    -723.89525620 Ry
     estimated scf accuracy    <       2.25004800 Ry

     total magnetization       =     2.00 Bohr mag/cell
     absolute magnetization    =     2.05 Bohr mag/cell

     iteration #  4     ecut=    60.00 Ry     beta= 0.70
     Davidson diagonalization with overlap

---- Real-time Memory Report at c_bands before calling an iterative solver
           168 MiB given to the printing process from OS
             0 MiB allocation reported by mallinfo(arena+hblkhd)
        141255 MiB available memory on the node where the printing process lives
------------------
     ethr =  8.86E-04,  avg # of iterations = 11.0

     total cpu time spent up to now is        7.6 secs

     total energy              =    -724.07871905 Ry
     estimated scf accuracy    <       0.46111590 Ry

     total magnetization       =     2.00 Bohr mag/cell
     absolute magnetization    =     2.10 Bohr mag/cell

     iteration #  5     ecut=    60.00 Ry     beta= 0.70
     Davidson diagonalization with overlap

---- Real-time Memory Report at c_bands before calling an iterative solver
           168 MiB given to the printing process from OS
             0 MiB allocation reported by mallinfo(arena+hblkhd)
        141258 MiB available memory on the node where the printing process lives
------------------
     ethr =  1.82E-04,  avg # of iterations = 10.5

     total cpu time spent up to now is        8.6 secs

     total energy              =    -724.10012771 Ry
     estimated scf accuracy    <       0.14699805 Ry

     total magnetization       =     2.00 Bohr mag/cell
     absolute magnetization    =     2.10 Bohr mag/cell

     iteration #  6     ecut=    60.00 Ry     beta= 0.70
     Davidson diagonalization with overlap

---- Real-time Memory Report at c_bands before calling an iterative solver
           168 MiB given to the printing process from OS
             0 MiB allocation reported by mallinfo(arena+hblkhd)
        141254 MiB available memory on the node where the printing process lives
------------------
     ethr =  5.79E-05,  avg # of iterations =  4.0

     total cpu time spent up to now is        9.4 secs

     total energy              =    -724.09480707 Ry
     estimated scf accuracy    <       0.07465330 Ry

     total magnetization       =     2.00 Bohr mag/cell
     absolute magnetization    =     2.11 Bohr mag/cell

     iteration #  7     ecut=    60.00 Ry     beta= 0.70
     Davidson diagonalization with overlap

---- Real-time Memory Report at c_bands before calling an iterative solver
           168 MiB given to the printing process from OS
             0 MiB allocation reported by mallinfo(arena+hblkhd)
        141255 MiB available memory on the node where the printing process lives
------------------
     ethr =  2.94E-05,  avg # of iterations = 19.0

     total cpu time spent up to now is       10.0 secs

     total energy              =    -724.09152656 Ry
     estimated scf accuracy    <       0.04620253 Ry

     total magnetization       =     2.00 Bohr mag/cell
     absolute magnetization    =     2.12 Bohr mag/cell

     iteration #  8     ecut=    60.00 Ry     beta= 0.70
     Davidson diagonalization with overlap

---- Real-time Memory Report at c_bands before calling an iterative solver
           168 MiB given to the printing process from OS
             0 MiB allocation reported by mallinfo(arena+hblkhd)
        141247 MiB available memory on the node where the printing process lives
------------------
     ethr =  1.82E-05,  avg # of iterations =  8.0

     total cpu time spent up to now is       10.3 secs

     total energy              =    -724.09126165 Ry
     estimated scf accuracy    <       0.02266957 Ry

     total magnetization       =     2.00 Bohr mag/cell
     absolute magnetization    =     2.14 Bohr mag/cell

     iteration #  9     ecut=    60.00 Ry     beta= 0.70
     Davidson diagonalization with overlap

---- Real-time Memory Report at c_bands before calling an iterative solver
           168 MiB given to the printing process from OS
             0 MiB allocation reported by mallinfo(arena+hblkhd)
        141246 MiB available memory on the node where the printing process lives
------------------
     ethr =  8.93E-06,  avg # of iterations =  6.5

     total cpu time spent up to now is       19.3 secs

     total energy              =    -724.09303689 Ry
     estimated scf accuracy    <       0.01802647 Ry

     total magnetization       =     2.00 Bohr mag/cell
     absolute magnetization    =     2.16 Bohr mag/cell

     iteration # 10     ecut=    60.00 Ry     beta= 0.70
     Davidson diagonalization with overlap

---- Real-time Memory Report at c_bands before calling an iterative solver
           168 MiB given to the printing process from OS
             0 MiB allocation reported by mallinfo(arena+hblkhd)
        141234 MiB available memory on the node where the printing process lives
------------------
     c_bands:  1 eigenvalues not converged
     ethr =  7.10E-06,  avg # of iterations = 20.0

     total cpu time spent up to now is       22.9 secs

     total energy              =    -724.09549033 Ry
     estimated scf accuracy    <       0.10087875 Ry

     total magnetization       =     2.00 Bohr mag/cell
     absolute magnetization    =     2.19 Bohr mag/cell

     iteration # 11     ecut=    60.00 Ry     beta= 0.70
     Davidson diagonalization with overlap

---- Real-time Memory Report at c_bands before calling an iterative solver
           169 MiB given to the printing process from OS
             0 MiB allocation reported by mallinfo(arena+hblkhd)
        141241 MiB available memory on the node where the printing process lives
------------------
     ethr =  7.10E-06,  avg # of iterations =  1.0

     total cpu time spent up to now is       23.1 secs

     total energy              =    -724.09547723 Ry
     estimated scf accuracy    <       0.11009916 Ry

     total magnetization       =     2.00 Bohr mag/cell
     absolute magnetization    =     2.19 Bohr mag/cell

     iteration # 12     ecut=    60.00 Ry     beta= 0.70
     Davidson diagonalization with overlap

---- Real-time Memory Report at c_bands before calling an iterative solver
           169 MiB given to the printing process from OS
             0 MiB allocation reported by mallinfo(arena+hblkhd)
        141238 MiB available memory on the node where the printing process lives
------------------
     ethr =  7.10E-06,  avg # of iterations =  1.0

     total cpu time spent up to now is       23.7 secs

     total energy              =    -724.09637004 Ry
     estimated scf accuracy    <       0.10970389 Ry

     total magnetization       =     2.00 Bohr mag/cell
     absolute magnetization    =     2.19 Bohr mag/cell

     iteration # 13     ecut=    60.00 Ry     beta= 0.70
     Davidson diagonalization with overlap

---- Real-time Memory Report at c_bands before calling an iterative solver
           169 MiB given to the printing process from OS
             0 MiB allocation reported by mallinfo(arena+hblkhd)
        141240 MiB available memory on the node where the printing process lives
------------------
     ethr =  7.10E-06,  avg # of iterations =  1.0

     total cpu time spent up to now is       32.3 secs

     total energy              =    -724.09882422 Ry
     estimated scf accuracy    <       0.11711092 Ry

     total magnetization       =     2.00 Bohr mag/cell
     absolute magnetization    =     2.19 Bohr mag/cell

     iteration # 14     ecut=    60.00 Ry     beta= 0.70
     Davidson diagonalization with overlap

---- Real-time Memory Report at c_bands before calling an iterative solver
           169 MiB given to the printing process from OS
             0 MiB allocation reported by mallinfo(arena+hblkhd)
        141242 MiB available memory on the node where the printing process lives
------------------
     ethr =  7.10E-06,  avg # of iterations =  2.5

     total cpu time spent up to now is       32.9 secs

     total energy              =    -724.09589276 Ry
     estimated scf accuracy    <       0.14816812 Ry

     total magnetization       =     2.00 Bohr mag/cell
     absolute magnetization    =     2.19 Bohr mag/cell

     iteration # 15     ecut=    60.00 Ry     beta= 0.70
     Davidson diagonalization with overlap

---- Real-time Memory Report at c_bands before calling an iterative solver
           169 MiB given to the printing process from OS
             0 MiB allocation reported by mallinfo(arena+hblkhd)
        141240 MiB available memory on the node where the printing process lives
------------------
     ethr =  7.10E-06,  avg # of iterations =  2.5

     total cpu time spent up to now is       35.1 secs

     total energy              =    -724.09235007 Ry
     estimated scf accuracy    <       0.11681072 Ry

     total magnetization       =     2.00 Bohr mag/cell
     absolute magnetization    =     2.19 Bohr mag/cell

     iteration # 16     ecut=    60.00 Ry     beta= 0.70
     Davidson diagonalization with overlap

---- Real-time Memory Report at c_bands before calling an iterative solver
           169 MiB given to the printing process from OS
             0 MiB allocation reported by mallinfo(arena+hblkhd)
        141242 MiB available memory on the node where the printing process lives
------------------
     ethr =  7.10E-06,  avg # of iterations =  3.0

     total cpu time spent up to now is       35.8 secs

     total energy              =    -724.09185705 Ry
     estimated scf accuracy    <       0.03205887 Ry

     total magnetization       =     2.00 Bohr mag/cell
     absolute magnetization    =     2.18 Bohr mag/cell

     iteration # 17     ecut=    60.00 Ry     beta= 0.70
     Davidson diagonalization with overlap

---- Real-time Memory Report at c_bands before calling an iterative solver
           169 MiB given to the printing process from OS
             0 MiB allocation reported by mallinfo(arena+hblkhd)
        141241 MiB available memory on the node where the printing process lives
------------------
     ethr =  7.10E-06,  avg # of iterations =  3.0

     total cpu time spent up to now is       38.2 secs

     total energy              =    -724.09515584 Ry
     estimated scf accuracy    <       0.11966352 Ry

     total magnetization       =     2.00 Bohr mag/cell
     absolute magnetization    =     2.19 Bohr mag/cell

     iteration # 18     ecut=    60.00 Ry     beta= 0.70
     Davidson diagonalization with overlap

---- Real-time Memory Report at c_bands before calling an iterative solver
           169 MiB given to the printing process from OS
             0 MiB allocation reported by mallinfo(arena+hblkhd)
        141243 MiB available memory on the node where the printing process lives
------------------
     ethr =  7.10E-06,  avg # of iterations =  1.5

     total cpu time spent up to now is       39.1 secs

     total energy              =    -724.09102525 Ry
     estimated scf accuracy    <       0.09923596 Ry

     total magnetization       =     2.00 Bohr mag/cell
     absolute magnetization    =     2.19 Bohr mag/cell

     iteration # 19     ecut=    60.00 Ry     beta= 0.70
     Davidson diagonalization with overlap

---- Real-time Memory Report at c_bands before calling an iterative solver
           169 MiB given to the printing process from OS
             0 MiB allocation reported by mallinfo(arena+hblkhd)
        141234 MiB available memory on the node where the printing process lives
------------------
     ethr =  7.10E-06,  avg # of iterations =  4.0

     total cpu time spent up to now is       39.8 secs

     total energy              =    -724.09432934 Ry
     estimated scf accuracy    <       0.01920880 Ry

     total magnetization       =     2.00 Bohr mag/cell
     absolute magnetization    =     2.18 Bohr mag/cell

     iteration # 20     ecut=    60.00 Ry     beta= 0.70
     Davidson diagonalization with overlap

---- Real-time Memory Report at c_bands before calling an iterative solver
           169 MiB given to the printing process from OS
             0 MiB allocation reported by mallinfo(arena+hblkhd)
        141242 MiB available memory on the node where the printing process lives
------------------
     ethr =  7.10E-06,  avg # of iterations =  2.0

     total cpu time spent up to now is       40.0 secs

     total energy              =    -724.09444835 Ry
     estimated scf accuracy    <       0.02449846 Ry

     total magnetization       =     2.00 Bohr mag/cell
     absolute magnetization    =     2.19 Bohr mag/cell

     iteration # 21     ecut=    60.00 Ry     beta= 0.70
     Davidson diagonalization with overlap

---- Real-time Memory Report at c_bands before calling an iterative solver
           169 MiB given to the printing process from OS
             0 MiB allocation reported by mallinfo(arena+hblkhd)
        141240 MiB available memory on the node where the printing process lives
------------------
     ethr =  7.10E-06,  avg # of iterations =  1.0

     total cpu time spent up to now is       40.3 secs

     total energy              =    -724.09402112 Ry
     estimated scf accuracy    <       0.02639636 Ry

     total magnetization       =     2.00 Bohr mag/cell
     absolute magnetization    =     2.18 Bohr mag/cell

     iteration # 22     ecut=    60.00 Ry     beta= 0.70
     Davidson diagonalization with overlap

---- Real-time Memory Report at c_bands before calling an iterative solver
           169 MiB given to the printing process from OS
             0 MiB allocation reported by mallinfo(arena+hblkhd)
        141242 MiB available memory on the node where the printing process lives
------------------
     ethr =  7.10E-06,  avg # of iterations =  1.0

     total cpu time spent up to now is       41.2 secs

     total energy              =    -724.09360125 Ry
     estimated scf accuracy    <       0.02158696 Ry

     total magnetization       =     2.00 Bohr mag/cell
     absolute magnetization    =     2.18 Bohr mag/cell

     iteration # 23     ecut=    60.00 Ry     beta= 0.70
     Davidson diagonalization with overlap

---- Real-time Memory Report at c_bands before calling an iterative solver
           169 MiB given to the printing process from OS
             0 MiB allocation reported by mallinfo(arena+hblkhd)
        141229 MiB available memory on the node where the printing process lives
------------------
     ethr =  7.10E-06,  avg # of iterations =  1.0

     total cpu time spent up to now is       50.2 secs

     total energy              =    -724.09375571 Ry
     estimated scf accuracy    <       0.04730961 Ry

     total magnetization       =     2.00 Bohr mag/cell
     absolute magnetization    =     2.19 Bohr mag/cell

     iteration # 24     ecut=    60.00 Ry     beta= 0.70
     Davidson diagonalization with overlap

---- Real-time Memory Report at c_bands before calling an iterative solver
           169 MiB given to the printing process from OS
             0 MiB allocation reported by mallinfo(arena+hblkhd)
        141243 MiB available memory on the node where the printing process lives
------------------
     ethr =  7.10E-06,  avg # of iterations =  1.0

     total cpu time spent up to now is       50.6 secs

     total energy              =    -724.09369647 Ry
     estimated scf accuracy    <       0.02954998 Ry

     total magnetization       =     2.00 Bohr mag/cell
     absolute magnetization    =     2.19 Bohr mag/cell

     iteration # 25     ecut=    60.00 Ry     beta= 0.70
     Davidson diagonalization with overlap

---- Real-time Memory Report at c_bands before calling an iterative solver
           169 MiB given to the printing process from OS
             0 MiB allocation reported by mallinfo(arena+hblkhd)
        141242 MiB available memory on the node where the printing process lives
------------------
     ethr =  7.10E-06,  avg # of iterations =  1.0

     total cpu time spent up to now is       53.5 secs

     total energy              =    -724.09346971 Ry
     estimated scf accuracy    <       0.01550695 Ry

     total magnetization       =     2.00 Bohr mag/cell
     absolute magnetization    =     2.18 Bohr mag/cell

     iteration # 26     ecut=    60.00 Ry     beta= 0.70
     Davidson diagonalization with overlap

---- Real-time Memory Report at c_bands before calling an iterative solver
           169 MiB given to the printing process from OS
             0 MiB allocation reported by mallinfo(arena+hblkhd)
        141243 MiB available memory on the node where the printing process lives
------------------
     ethr =  6.11E-06,  avg # of iterations =  1.0

     total cpu time spent up to now is       53.8 secs

     total energy              =    -724.09445301 Ry
     estimated scf accuracy    <       0.06576697 Ry

     total magnetization       =     2.00 Bohr mag/cell
     absolute magnetization    =     2.19 Bohr mag/cell

     iteration # 27     ecut=    60.00 Ry     beta= 0.70
     Davidson diagonalization with overlap

---- Real-time Memory Report at c_bands before calling an iterative solver
           169 MiB given to the printing process from OS
             0 MiB allocation reported by mallinfo(arena+hblkhd)
        141243 MiB available memory on the node where the printing process lives
------------------
     ethr =  6.11E-06,  avg # of iterations =  1.5

     total cpu time spent up to now is       53.9 secs

     total energy              =    -724.09482406 Ry
     estimated scf accuracy    <       0.07187683 Ry

     total magnetization       =     2.00 Bohr mag/cell
     absolute magnetization    =     2.19 Bohr mag/cell

     iteration # 28     ecut=    60.00 Ry     beta= 0.70
     Davidson diagonalization with overlap

---- Real-time Memory Report at c_bands before calling an iterative solver
           169 MiB given to the printing process from OS
             0 MiB allocation reported by mallinfo(arena+hblkhd)
        141229 MiB available memory on the node where the printing process lives
------------------
     ethr =  6.11E-06,  avg # of iterations =  1.0

     total cpu time spent up to now is       54.4 secs

     total energy              =    -724.09514651 Ry
     estimated scf accuracy    <       0.07573900 Ry

     total magnetization       =     2.00 Bohr mag/cell
     absolute magnetization    =     2.19 Bohr mag/cell

     iteration # 29     ecut=    60.00 Ry     beta= 0.70
     Davidson diagonalization with overlap

---- Real-time Memory Report at c_bands before calling an iterative solver
           169 MiB given to the printing process from OS
             0 MiB allocation reported by mallinfo(arena+hblkhd)
        141242 MiB available memory on the node where the printing process lives
------------------
     ethr =  6.11E-06,  avg # of iterations =  1.0

     total cpu time spent up to now is       59.4 secs

     total energy              =    -724.09525551 Ry
     estimated scf accuracy    <       0.07928075 Ry

     total magnetization       =     2.00 Bohr mag/cell
     absolute magnetization    =     2.19 Bohr mag/cell

     iteration # 30     ecut=    60.00 Ry     beta= 0.70
     Davidson diagonalization with overlap

---- Real-time Memory Report at c_bands before calling an iterative solver
           169 MiB given to the printing process from OS
             0 MiB allocation reported by mallinfo(arena+hblkhd)
        141243 MiB available memory on the node where the printing process lives
------------------
     ethr =  6.11E-06,  avg # of iterations =  1.0

     total cpu time spent up to now is       59.7 secs

     total energy              =    -724.09512896 Ry
     estimated scf accuracy    <       0.08042186 Ry

     total magnetization       =     2.00 Bohr mag/cell
     absolute magnetization    =     2.19 Bohr mag/cell

     iteration # 31     ecut=    60.00 Ry     beta= 0.70
     Davidson diagonalization with overlap

---- Real-time Memory Report at c_bands before calling an iterative solver
           169 MiB given to the printing process from OS
             0 MiB allocation reported by mallinfo(arena+hblkhd)
        141229 MiB available memory on the node where the printing process lives
------------------
     ethr =  6.11E-06,  avg # of iterations =  1.0

     total cpu time spent up to now is       64.6 secs

     total energy              =    -724.09500893 Ry
     estimated scf accuracy    <       0.07975525 Ry

     total magnetization       =     2.00 Bohr mag/cell
     absolute magnetization    =     2.19 Bohr mag/cell

     iteration # 32     ecut=    60.00 Ry     beta= 0.70
     Davidson diagonalization with overlap

---- Real-time Memory Report at c_bands before calling an iterative solver
           169 MiB given to the printing process from OS
             0 MiB allocation reported by mallinfo(arena+hblkhd)
        141230 MiB available memory on the node where the printing process lives
------------------
     ethr =  6.11E-06,  avg # of iterations =  1.0

     total cpu time spent up to now is       76.0 secs

     total energy              =    -724.09492263 Ry
     estimated scf accuracy    <       0.07987389 Ry

     total magnetization       =     2.00 Bohr mag/cell
     absolute magnetization    =     2.19 Bohr mag/cell

     iteration # 33     ecut=    60.00 Ry     beta= 0.70
     Davidson diagonalization with overlap

---- Real-time Memory Report at c_bands before calling an iterative solver
           169 MiB given to the printing process from OS
             0 MiB allocation reported by mallinfo(arena+hblkhd)
        141243 MiB available memory on the node where the printing process lives
------------------
     ethr =  6.11E-06,  avg # of iterations =  1.0

     total cpu time spent up to now is       80.6 secs

     total energy              =    -724.09407233 Ry
     estimated scf accuracy    <       0.07577761 Ry

     total magnetization       =     2.00 Bohr mag/cell
     absolute magnetization    =     2.19 Bohr mag/cell

     iteration # 34     ecut=    60.00 Ry     beta= 0.70
     Davidson diagonalization with overlap

---- Real-time Memory Report at c_bands before calling an iterative solver
           169 MiB given to the printing process from OS
             0 MiB allocation reported by mallinfo(arena+hblkhd)
        141243 MiB available memory on the node where the printing process lives
------------------
     ethr =  6.11E-06,  avg # of iterations =  1.5

     total cpu time spent up to now is       81.2 secs

     total energy              =    -724.07589183 Ry
     estimated scf accuracy    <       0.06362163 Ry

     total magnetization       =     2.00 Bohr mag/cell
     absolute magnetization    =     2.19 Bohr mag/cell

     iteration # 35     ecut=    60.00 Ry     beta= 0.70
     Davidson diagonalization with overlap

---- Real-time Memory Report at c_bands before calling an iterative solver
           169 MiB given to the printing process from OS
             0 MiB allocation reported by mallinfo(arena+hblkhd)
        141229 MiB available memory on the node where the printing process lives
------------------
     c_bands:  3 eigenvalues not converged
     ethr =  6.11E-06,  avg # of iterations = 18.5

     total cpu time spent up to now is       81.8 secs

     total energy              =    -724.09557685 Ry
     estimated scf accuracy    <       0.14088748 Ry

     total magnetization       =     2.00 Bohr mag/cell
     absolute magnetization    =     2.21 Bohr mag/cell

     iteration # 36     ecut=    60.00 Ry     beta= 0.70
     Davidson diagonalization with overlap

---- Real-time Memory Report at c_bands before calling an iterative solver
           169 MiB given to the printing process from OS
             0 MiB allocation reported by mallinfo(arena+hblkhd)
        141244 MiB available memory on the node where the printing process lives
------------------
     ethr =  6.11E-06,  avg # of iterations =  7.0

     total cpu time spent up to now is       82.7 secs

     total energy              =    -724.09311079 Ry
     estimated scf accuracy    <       0.07816846 Ry

     total magnetization       =     2.00 Bohr mag/cell
     absolute magnetization    =     2.20 Bohr mag/cell

     iteration # 37     ecut=    60.00 Ry     beta= 0.70
     Davidson diagonalization with overlap

---- Real-time Memory Report at c_bands before calling an iterative solver
           169 MiB given to the printing process from OS
             0 MiB allocation reported by mallinfo(arena+hblkhd)
        141243 MiB available memory on the node where the printing process lives
------------------
     ethr =  6.11E-06,  avg # of iterations =  8.5

     total cpu time spent up to now is       90.6 secs

     total energy              =    -724.09287631 Ry
     estimated scf accuracy    <       0.04335188 Ry

     total magnetization       =     2.00 Bohr mag/cell
     absolute magnetization    =     2.19 Bohr mag/cell

     iteration # 38     ecut=    60.00 Ry     beta= 0.70
     Davidson diagonalization with overlap

---- Real-time Memory Report at c_bands before calling an iterative solver
           169 MiB given to the printing process from OS
             0 MiB allocation reported by mallinfo(arena+hblkhd)
        141233 MiB available memory on the node where the printing process lives
------------------
     ethr =  6.11E-06,  avg # of iterations =  2.5

     total cpu time spent up to now is       91.0 secs

     total energy              =    -724.09383764 Ry
     estimated scf accuracy    <       0.04235746 Ry

     total magnetization       =     2.00 Bohr mag/cell
     absolute magnetization    =     2.19 Bohr mag/cell

     iteration # 39     ecut=    60.00 Ry     beta= 0.70
     Davidson diagonalization with overlap

---- Real-time Memory Report at c_bands before calling an iterative solver
           169 MiB given to the printing process from OS
             0 MiB allocation reported by mallinfo(arena+hblkhd)
        141232 MiB available memory on the node where the printing process lives
------------------
     ethr =  6.11E-06,  avg # of iterations =  1.5

     total cpu time spent up to now is       91.2 secs

     total energy              =    -724.09369369 Ry
     estimated scf accuracy    <       0.05090766 Ry

     total magnetization       =     2.00 Bohr mag/cell
     absolute magnetization    =     2.19 Bohr mag/cell

     iteration # 40     ecut=    60.00 Ry     beta= 0.70
     Davidson diagonalization with overlap

---- Real-time Memory Report at c_bands before calling an iterative solver
           169 MiB given to the printing process from OS
             0 MiB allocation reported by mallinfo(arena+hblkhd)
        141243 MiB available memory on the node where the printing process lives
------------------
     ethr =  6.11E-06,  avg # of iterations =  1.0

     total cpu time spent up to now is       91.3 secs

     total energy              =    -724.09387584 Ry
     estimated scf accuracy    <       0.03865476 Ry

     total magnetization       =     2.00 Bohr mag/cell
     absolute magnetization    =     2.19 Bohr mag/cell

     iteration # 41     ecut=    60.00 Ry     beta= 0.70
     Davidson diagonalization with overlap

---- Real-time Memory Report at c_bands before calling an iterative solver
           169 MiB given to the printing process from OS
             0 MiB allocation reported by mallinfo(arena+hblkhd)
        141244 MiB available memory on the node where the printing process lives
------------------
     ethr =  6.11E-06,  avg # of iterations =  1.5

     total cpu time spent up to now is       91.5 secs

     total energy              =    -724.09341603 Ry
     estimated scf accuracy    <       0.03352260 Ry

     total magnetization       =     2.00 Bohr mag/cell
     absolute magnetization    =     2.19 Bohr mag/cell

     iteration # 42     ecut=    60.00 Ry     beta= 0.70
     Davidson diagonalization with overlap

---- Real-time Memory Report at c_bands before calling an iterative solver
           169 MiB given to the printing process from OS
             0 MiB allocation reported by mallinfo(arena+hblkhd)
        141243 MiB available memory on the node where the printing process lives
------------------
     ethr =  6.11E-06,  avg # of iterations =  1.5

     total cpu time spent up to now is       91.6 secs

     total energy              =    -724.09383020 Ry
     estimated scf accuracy    <       0.05237204 Ry

     total magnetization       =     2.00 Bohr mag/cell
     absolute magnetization    =     2.19 Bohr mag/cell

     iteration # 43     ecut=    60.00 Ry     beta= 0.70
     Davidson diagonalization with overlap

---- Real-time Memory Report at c_bands before calling an iterative solver
           169 MiB given to the printing process from OS
             0 MiB allocation reported by mallinfo(arena+hblkhd)
        141243 MiB available memory on the node where the printing process lives
------------------
     ethr =  6.11E-06,  avg # of iterations =  1.0

     total cpu time spent up to now is       92.1 secs

     total energy              =    -724.09397165 Ry
     estimated scf accuracy    <       0.04402410 Ry

     total magnetization       =     2.00 Bohr mag/cell
     absolute magnetization    =     2.19 Bohr mag/cell

     iteration # 44     ecut=    60.00 Ry     beta= 0.70
     Davidson diagonalization with overlap

---- Real-time Memory Report at c_bands before calling an iterative solver
           169 MiB given to the printing process from OS
             0 MiB allocation reported by mallinfo(arena+hblkhd)
        141229 MiB available memory on the node where the printing process lives
------------------
     ethr =  6.11E-06,  avg # of iterations =  1.0

     total cpu time spent up to now is       93.1 secs

     total energy              =    -724.09393554 Ry
     estimated scf accuracy    <       0.04574858 Ry

     total magnetization       =     2.00 Bohr mag/cell
     absolute magnetization    =     2.19 Bohr mag/cell

     iteration # 45     ecut=    60.00 Ry     beta= 0.70
     Davidson diagonalization with overlap

---- Real-time Memory Report at c_bands before calling an iterative solver
           169 MiB given to the printing process from OS
             0 MiB allocation reported by mallinfo(arena+hblkhd)
        141240 MiB available memory on the node where the printing process lives
------------------
     ethr =  6.11E-06,  avg # of iterations =  1.0

     total cpu time spent up to now is      105.0 secs

     total energy              =    -724.09398156 Ry
     estimated scf accuracy    <       0.04273930 Ry

     total magnetization       =     2.00 Bohr mag/cell
     absolute magnetization    =     2.19 Bohr mag/cell

     iteration # 46     ecut=    60.00 Ry     beta= 0.70
     Davidson diagonalization with overlap

---- Real-time Memory Report at c_bands before calling an iterative solver
           169 MiB given to the printing process from OS
             0 MiB allocation reported by mallinfo(arena+hblkhd)
        141231 MiB available memory on the node where the printing process lives
------------------
     ethr =  6.11E-06,  avg # of iterations =  1.0

     total cpu time spent up to now is      109.0 secs

     total energy              =    -724.09399759 Ry
     estimated scf accuracy    <       0.04045103 Ry

     total magnetization       =     2.00 Bohr mag/cell
     absolute magnetization    =     2.19 Bohr mag/cell

     iteration # 47     ecut=    60.00 Ry     beta= 0.70
     Davidson diagonalization with overlap

---- Real-time Memory Report at c_bands before calling an iterative solver
           169 MiB given to the printing process from OS
             0 MiB allocation reported by mallinfo(arena+hblkhd)
        141229 MiB available memory on the node where the printing process lives
------------------
     ethr =  6.11E-06,  avg # of iterations =  1.0

     total cpu time spent up to now is      109.4 secs

     total energy              =    -724.09397666 Ry
     estimated scf accuracy    <       0.04290658 Ry

     total magnetization       =     2.00 Bohr mag/cell
     absolute magnetization    =     2.19 Bohr mag/cell

     iteration # 48     ecut=    60.00 Ry     beta= 0.70
     Davidson diagonalization with overlap

---- Real-time Memory Report at c_bands before calling an iterative solver
           169 MiB given to the printing process from OS
             0 MiB allocation reported by mallinfo(arena+hblkhd)
        141242 MiB available memory on the node where the printing process lives
------------------
     ethr =  6.11E-06,  avg # of iterations =  1.0

     total cpu time spent up to now is      121.6 secs

     total energy              =    -724.09398220 Ry
     estimated scf accuracy    <       0.04220107 Ry

     total magnetization       =     2.00 Bohr mag/cell
     absolute magnetization    =     2.19 Bohr mag/cell

     iteration # 49     ecut=    60.00 Ry     beta= 0.70
     Davidson diagonalization with overlap

---- Real-time Memory Report at c_bands before calling an iterative solver
           169 MiB given to the printing process from OS
             0 MiB allocation reported by mallinfo(arena+hblkhd)
        141241 MiB available memory on the node where the printing process lives
------------------
     ethr =  6.11E-06,  avg # of iterations =  1.0

     total cpu time spent up to now is      127.0 secs

     total energy              =    -724.09387988 Ry
     estimated scf accuracy    <       0.04119976 Ry

     total magnetization       =     2.00 Bohr mag/cell
     absolute magnetization    =     2.19 Bohr mag/cell

     iteration # 50     ecut=    60.00 Ry     beta= 0.70
     Davidson diagonalization with overlap

---- Real-time Memory Report at c_bands before calling an iterative solver
           169 MiB given to the printing process from OS
             0 MiB allocation reported by mallinfo(arena+hblkhd)
        141242 MiB available memory on the node where the printing process lives
------------------
     ethr =  6.11E-06,  avg # of iterations =  1.5

     total cpu time spent up to now is      127.6 secs

     total energy              =    -724.09381710 Ry
     estimated scf accuracy    <       0.03952582 Ry

     total magnetization       =     2.00 Bohr mag/cell
     absolute magnetization    =     2.19 Bohr mag/cell

     iteration # 51     ecut=    60.00 Ry     beta= 0.70
     Davidson diagonalization with overlap

---- Real-time Memory Report at c_bands before calling an iterative solver
           169 MiB given to the printing process from OS
             0 MiB allocation reported by mallinfo(arena+hblkhd)
        141241 MiB available memory on the node where the printing process lives
------------------
     ethr =  6.11E-06,  avg # of iterations =  1.5

     total cpu time spent up to now is      137.8 secs

     total energy              =    -724.09262369 Ry
     estimated scf accuracy    <       0.03582998 Ry

     total magnetization       =     2.00 Bohr mag/cell
     absolute magnetization    =     2.19 Bohr mag/cell

     iteration # 52     ecut=    60.00 Ry     beta= 0.70
     Davidson diagonalization with overlap

---- Real-time Memory Report at c_bands before calling an iterative solver
           169 MiB given to the printing process from OS
             0 MiB allocation reported by mallinfo(arena+hblkhd)
        141243 MiB available memory on the node where the printing process lives
------------------
     ethr =  6.11E-06,  avg # of iterations =  3.0

     total cpu time spent up to now is      138.0 secs

     total energy              =    -724.09380763 Ry
     estimated scf accuracy    <       0.02689104 Ry

     total magnetization       =     2.00 Bohr mag/cell
     absolute magnetization    =     2.19 Bohr mag/cell

     iteration # 53     ecut=    60.00 Ry     beta= 0.70
     Davidson diagonalization with overlap

---- Real-time Memory Report at c_bands before calling an iterative solver
           169 MiB given to the printing process from OS
             0 MiB allocation reported by mallinfo(arena+hblkhd)
        141229 MiB available memory on the node where the printing process lives
------------------
     ethr =  6.11E-06,  avg # of iterations =  1.5

     total cpu time spent up to now is      141.7 secs

     total energy              =    -724.09361639 Ry
     estimated scf accuracy    <       0.03771597 Ry

     total magnetization       =     2.00 Bohr mag/cell
     absolute magnetization    =     2.19 Bohr mag/cell

     iteration # 54     ecut=    60.00 Ry     beta= 0.70
     Davidson diagonalization with overlap

---- Real-time Memory Report at c_bands before calling an iterative solver
           169 MiB given to the printing process from OS
             0 MiB allocation reported by mallinfo(arena+hblkhd)
        141242 MiB available memory on the node where the printing process lives
------------------
     ethr =  6.11E-06,  avg # of iterations =  3.0

     total cpu time spent up to now is      142.1 secs

     total energy              =    -724.09402000 Ry
     estimated scf accuracy    <       0.05186457 Ry

     total magnetization       =     2.00 Bohr mag/cell
     absolute magnetization    =     2.19 Bohr mag/cell

     iteration # 55     ecut=    60.00 Ry     beta= 0.70
     Davidson diagonalization with overlap

---- Real-time Memory Report at c_bands before calling an iterative solver
           169 MiB given to the printing process from OS
             0 MiB allocation reported by mallinfo(arena+hblkhd)
        141231 MiB available memory on the node where the printing process lives
------------------
     ethr =  6.11E-06,  avg # of iterations =  1.5

     total cpu time spent up to now is      143.7 secs

     total energy              =    -724.09396182 Ry
     estimated scf accuracy    <       0.05840215 Ry

     total magnetization       =     2.00 Bohr mag/cell
     absolute magnetization    =     2.20 Bohr mag/cell

     iteration # 56     ecut=    60.00 Ry     beta= 0.70
     Davidson diagonalization with overlap

---- Real-time Memory Report at c_bands before calling an iterative solver
           169 MiB given to the printing process from OS
             0 MiB allocation reported by mallinfo(arena+hblkhd)
        141242 MiB available memory on the node where the printing process lives
------------------
     ethr =  6.11E-06,  avg # of iterations =  1.0

     total cpu time spent up to now is      144.7 secs

     total energy              =    -724.09412982 Ry
     estimated scf accuracy    <       0.06277197 Ry

     total magnetization       =     2.00 Bohr mag/cell
     absolute magnetization    =     2.20 Bohr mag/cell

     iteration # 57     ecut=    60.00 Ry     beta= 0.70
     Davidson diagonalization with overlap

---- Real-time Memory Report at c_bands before calling an iterative solver
           169 MiB given to the printing process from OS
             0 MiB allocation reported by mallinfo(arena+hblkhd)
        141242 MiB available memory on the node where the printing process lives
------------------
     ethr =  6.11E-06,  avg # of iterations =  1.0

     total cpu time spent up to now is      145.0 secs

     total energy              =    -724.09382696 Ry
     estimated scf accuracy    <       0.05944119 Ry

     total magnetization       =     2.00 Bohr mag/cell
     absolute magnetization    =     2.20 Bohr mag/cell

     iteration # 58     ecut=    60.00 Ry     beta= 0.70
     Davidson diagonalization with overlap

---- Real-time Memory Report at c_bands before calling an iterative solver
           169 MiB given to the printing process from OS
             0 MiB allocation reported by mallinfo(arena+hblkhd)
        141229 MiB available memory on the node where the printing process lives
------------------
     ethr =  6.11E-06,  avg # of iterations =  1.0

     total cpu time spent up to now is      145.3 secs

     total energy              =    -724.09226935 Ry
     estimated scf accuracy    <       0.05918956 Ry

     total magnetization       =     2.00 Bohr mag/cell
     absolute magnetization    =     2.19 Bohr mag/cell

     iteration # 59     ecut=    60.00 Ry     beta= 0.70
     Davidson diagonalization with overlap

---- Real-time Memory Report at c_bands before calling an iterative solver
           169 MiB given to the printing process from OS
             0 MiB allocation reported by mallinfo(arena+hblkhd)
        141242 MiB available memory on the node where the printing process lives
------------------
     ethr =  6.11E-06,  avg # of iterations =  3.0

     total cpu time spent up to now is      145.8 secs

     total energy              =    -724.09389295 Ry
     estimated scf accuracy    <       0.03636301 Ry

     total magnetization       =     2.00 Bohr mag/cell
     absolute magnetization    =     2.19 Bohr mag/cell

     iteration # 60     ecut=    60.00 Ry     beta= 0.70
     Davidson diagonalization with overlap

---- Real-time Memory Report at c_bands before calling an iterative solver
           169 MiB given to the printing process from OS
             0 MiB allocation reported by mallinfo(arena+hblkhd)
        141238 MiB available memory on the node where the printing process lives
------------------
     ethr =  6.11E-06,  avg # of iterations =  1.0

     total cpu time spent up to now is      149.1 secs

     total energy              =    -724.09383801 Ry
     estimated scf accuracy    <       0.03687680 Ry

     total magnetization       =     2.00 Bohr mag/cell
     absolute magnetization    =     2.19 Bohr mag/cell

     iteration # 61     ecut=    60.00 Ry     beta= 0.70
     Davidson diagonalization with overlap

---- Real-time Memory Report at c_bands before calling an iterative solver
           169 MiB given to the printing process from OS
             0 MiB allocation reported by mallinfo(arena+hblkhd)
        141243 MiB available memory on the node where the printing process lives
------------------
     ethr =  6.11E-06,  avg # of iterations =  1.5

     total cpu time spent up to now is      149.5 secs

     total energy              =    -724.09385032 Ry
     estimated scf accuracy    <       0.03671302 Ry

     total magnetization       =     2.00 Bohr mag/cell
     absolute magnetization    =     2.19 Bohr mag/cell

     iteration # 62     ecut=    60.00 Ry     beta= 0.70
     Davidson diagonalization with overlap

---- Real-time Memory Report at c_bands before calling an iterative solver
           169 MiB given to the printing process from OS
             0 MiB allocation reported by mallinfo(arena+hblkhd)
        141242 MiB available memory on the node where the printing process lives
------------------
     ethr =  6.11E-06,  avg # of iterations =  1.0

     total cpu time spent up to now is      149.7 secs

     total energy              =    -724.09380989 Ry
     estimated scf accuracy    <       0.03161108 Ry

     total magnetization       =     2.00 Bohr mag/cell
     absolute magnetization    =     2.19 Bohr mag/cell

     iteration # 63     ecut=    60.00 Ry     beta= 0.70
     Davidson diagonalization with overlap

---- Real-time Memory Report at c_bands before calling an iterative solver
           169 MiB given to the printing process from OS
             0 MiB allocation reported by mallinfo(arena+hblkhd)
        141242 MiB available memory on the node where the printing process lives
------------------
     ethr =  6.11E-06,  avg # of iterations =  1.0

     total cpu time spent up to now is      149.8 secs

     total energy              =    -724.09378062 Ry
     estimated scf accuracy    <       0.03095839 Ry

     total magnetization       =     2.00 Bohr mag/cell
     absolute magnetization    =     2.19 Bohr mag/cell

     iteration # 64     ecut=    60.00 Ry     beta= 0.70
     Davidson diagonalization with overlap

---- Real-time Memory Report at c_bands before calling an iterative solver
           169 MiB given to the printing process from OS
             0 MiB allocation reported by mallinfo(arena+hblkhd)
        141242 MiB available memory on the node where the printing process lives
------------------
     ethr =  6.11E-06,  avg # of iterations =  1.0

     total cpu time spent up to now is      150.0 secs

     total energy              =    -724.09378850 Ry
     estimated scf accuracy    <       0.04585314 Ry

     total magnetization       =     2.00 Bohr mag/cell
     absolute magnetization    =     2.19 Bohr mag/cell

     iteration # 65     ecut=    60.00 Ry     beta= 0.70
     Davidson diagonalization with overlap

---- Real-time Memory Report at c_bands before calling an iterative solver
           169 MiB given to the printing process from OS
             0 MiB allocation reported by mallinfo(arena+hblkhd)
        141230 MiB available memory on the node where the printing process lives
------------------
     ethr =  6.11E-06,  avg # of iterations =  1.0

     total cpu time spent up to now is      151.0 secs

     total energy              =    -724.09387671 Ry
     estimated scf accuracy    <       0.03010388 Ry

     total magnetization       =     2.00 Bohr mag/cell
     absolute magnetization    =     2.19 Bohr mag/cell

     iteration # 66     ecut=    60.00 Ry     beta= 0.70
     Davidson diagonalization with overlap

---- Real-time Memory Report at c_bands before calling an iterative solver
           169 MiB given to the printing process from OS
             0 MiB allocation reported by mallinfo(arena+hblkhd)
        141233 MiB available memory on the node where the printing process lives
------------------
     ethr =  6.11E-06,  avg # of iterations =  1.5

     total cpu time spent up to now is      151.4 secs

     total energy              =    -724.09384151 Ry
     estimated scf accuracy    <       0.03377752 Ry

     total magnetization       =     2.00 Bohr mag/cell
     absolute magnetization    =     2.19 Bohr mag/cell

     iteration # 67     ecut=    60.00 Ry     beta= 0.70
     Davidson diagonalization with overlap

---- Real-time Memory Report at c_bands before calling an iterative solver
           169 MiB given to the printing process from OS
             0 MiB allocation reported by mallinfo(arena+hblkhd)
        141244 MiB available memory on the node where the printing process lives
------------------
     ethr =  6.11E-06,  avg # of iterations =  1.0

     total cpu time spent up to now is      151.6 secs

     total energy              =    -724.09397031 Ry
     estimated scf accuracy    <       0.03814786 Ry

     total magnetization       =     2.00 Bohr mag/cell
     absolute magnetization    =     2.19 Bohr mag/cell

     iteration # 68     ecut=    60.00 Ry     beta= 0.70
     Davidson diagonalization with overlap

---- Real-time Memory Report at c_bands before calling an iterative solver
           169 MiB given to the printing process from OS
             0 MiB allocation reported by mallinfo(arena+hblkhd)
        141243 MiB available memory on the node where the printing process lives
------------------
     ethr =  6.11E-06,  avg # of iterations =  1.0

     total cpu time spent up to now is      151.7 secs

     total energy              =    -724.09412128 Ry
     estimated scf accuracy    <       0.03474189 Ry

     total magnetization       =     2.00 Bohr mag/cell
     absolute magnetization    =     2.19 Bohr mag/cell

     iteration # 69     ecut=    60.00 Ry     beta= 0.70
     Davidson diagonalization with overlap

---- Real-time Memory Report at c_bands before calling an iterative solver
           169 MiB given to the printing process from OS
             0 MiB allocation reported by mallinfo(arena+hblkhd)
        141243 MiB available memory on the node where the printing process lives
------------------
     ethr =  6.11E-06,  avg # of iterations =  1.0

     total cpu time spent up to now is      151.8 secs

     total energy              =    -724.09418269 Ry
     estimated scf accuracy    <       0.03444686 Ry

     total magnetization       =     2.00 Bohr mag/cell
     absolute magnetization    =     2.19 Bohr mag/cell

     iteration # 70     ecut=    60.00 Ry     beta= 0.70
     Davidson diagonalization with overlap

---- Real-time Memory Report at c_bands before calling an iterative solver
           169 MiB given to the printing process from OS
             0 MiB allocation reported by mallinfo(arena+hblkhd)
        141243 MiB available memory on the node where the printing process lives
------------------
     ethr =  6.11E-06,  avg # of iterations =  1.0

     total cpu time spent up to now is      152.0 secs

     total energy              =    -724.09423606 Ry
     estimated scf accuracy    <       0.03597265 Ry

     total magnetization       =     2.00 Bohr mag/cell
     absolute magnetization    =     2.19 Bohr mag/cell

     iteration # 71     ecut=    60.00 Ry     beta= 0.70
     Davidson diagonalization with overlap

---- Real-time Memory Report at c_bands before calling an iterative solver
           169 MiB given to the printing process from OS
             0 MiB allocation reported by mallinfo(arena+hblkhd)
        141232 MiB available memory on the node where the printing process lives
------------------
     ethr =  6.11E-06,  avg # of iterations =  1.0

     total cpu time spent up to now is      152.6 secs

     total energy              =    -724.09428009 Ry
     estimated scf accuracy    <       0.03883646 Ry

     total magnetization       =     2.00 Bohr mag/cell
     absolute magnetization    =     2.19 Bohr mag/cell

     iteration # 72     ecut=    60.00 Ry     beta= 0.70
     Davidson diagonalization with overlap

---- Real-time Memory Report at c_bands before calling an iterative solver
           169 MiB given to the printing process from OS
             0 MiB allocation reported by mallinfo(arena+hblkhd)
        141242 MiB available memory on the node where the printing process lives
------------------
     ethr =  6.11E-06,  avg # of iterations =  1.0

     total cpu time spent up to now is      152.7 secs

     total energy              =    -724.09424728 Ry
     estimated scf accuracy    <       0.03931598 Ry

     total magnetization       =     2.00 Bohr mag/cell
     absolute magnetization    =     2.19 Bohr mag/cell

     iteration # 73     ecut=    60.00 Ry     beta= 0.70
     Davidson diagonalization with overlap

---- Real-time Memory Report at c_bands before calling an iterative solver
           169 MiB given to the printing process from OS
             0 MiB allocation reported by mallinfo(arena+hblkhd)
        141243 MiB available memory on the node where the printing process lives
------------------
     ethr =  6.11E-06,  avg # of iterations =  1.0

     total cpu time spent up to now is      152.8 secs

     total energy              =    -724.09253603 Ry
     estimated scf accuracy    <       0.03900942 Ry

     total magnetization       =     2.00 Bohr mag/cell
     absolute magnetization    =     2.19 Bohr mag/cell

     iteration # 74     ecut=    60.00 Ry     beta= 0.70
     Davidson diagonalization with overlap

---- Real-time Memory Report at c_bands before calling an iterative solver
           169 MiB given to the printing process from OS
             0 MiB allocation reported by mallinfo(arena+hblkhd)
        141243 MiB available memory on the node where the printing process lives
------------------
     ethr =  6.11E-06,  avg # of iterations = 15.0

     total cpu time spent up to now is      153.3 secs

     total energy              =    -724.09545211 Ry
     estimated scf accuracy    <       0.09304570 Ry

     total magnetization       =     2.00 Bohr mag/cell
     absolute magnetization    =     2.20 Bohr mag/cell

     iteration # 75     ecut=    60.00 Ry     beta= 0.70
     Davidson diagonalization with overlap

---- Real-time Memory Report at c_bands before calling an iterative solver
           169 MiB given to the printing process from OS
             0 MiB allocation reported by mallinfo(arena+hblkhd)
        141243 MiB available memory on the node where the printing process lives
------------------
     ethr =  6.11E-06,  avg # of iterations =  1.5

     total cpu time spent up to now is      153.5 secs

     total energy              =    -724.09571213 Ry
     estimated scf accuracy    <       0.08334933 Ry

     total magnetization       =     2.00 Bohr mag/cell
     absolute magnetization    =     2.19 Bohr mag/cell

     iteration # 76     ecut=    60.00 Ry     beta= 0.70
     Davidson diagonalization with overlap

---- Real-time Memory Report at c_bands before calling an iterative solver
           169 MiB given to the printing process from OS
             0 MiB allocation reported by mallinfo(arena+hblkhd)
        141242 MiB available memory on the node where the printing process lives
------------------
     ethr =  6.11E-06,  avg # of iterations =  1.5

     total cpu time spent up to now is      153.7 secs

     total energy              =    -724.05703535 Ry
     estimated scf accuracy    <       0.09569965 Ry

     total magnetization       =     2.00 Bohr mag/cell
     absolute magnetization    =     2.20 Bohr mag/cell

     iteration # 77     ecut=    60.00 Ry     beta= 0.70
     Davidson diagonalization with overlap

---- Real-time Memory Report at c_bands before calling an iterative solver
           169 MiB given to the printing process from OS
             0 MiB allocation reported by mallinfo(arena+hblkhd)
        141229 MiB available memory on the node where the printing process lives
------------------
     c_bands:  1 eigenvalues not converged
     ethr =  6.11E-06,  avg # of iterations = 20.0

     total cpu time spent up to now is      159.3 secs

     total energy              =    -724.08226900 Ry
     estimated scf accuracy    <       0.04869395 Ry

     total magnetization       =     2.00 Bohr mag/cell
     absolute magnetization    =     2.22 Bohr mag/cell

     iteration # 78     ecut=    60.00 Ry     beta= 0.70
     Davidson diagonalization with overlap

---- Real-time Memory Report at c_bands before calling an iterative solver
           170 MiB given to the printing process from OS
             0 MiB allocation reported by mallinfo(arena+hblkhd)
        141243 MiB available memory on the node where the printing process lives
------------------
     ethr =  6.11E-06,  avg # of iterations = 12.5

     total cpu time spent up to now is      160.2 secs

     total energy              =    -724.09360047 Ry
     estimated scf accuracy    <       0.03503701 Ry

     total magnetization       =     2.00 Bohr mag/cell
     absolute magnetization    =     2.19 Bohr mag/cell

     iteration # 79     ecut=    60.00 Ry     beta= 0.70
     Davidson diagonalization with overlap

---- Real-time Memory Report at c_bands before calling an iterative solver
           170 MiB given to the printing process from OS
             0 MiB allocation reported by mallinfo(arena+hblkhd)
        141243 MiB available memory on the node where the printing process lives
------------------
     ethr =  6.11E-06,  avg # of iterations =  2.0

     total cpu time spent up to now is      160.4 secs

     total energy              =    -724.09374680 Ry
     estimated scf accuracy    <       0.05071548 Ry

     total magnetization       =     2.00 Bohr mag/cell
     absolute magnetization    =     2.19 Bohr mag/cell

     iteration # 80     ecut=    60.00 Ry     beta= 0.70
     Davidson diagonalization with overlap

---- Real-time Memory Report at c_bands before calling an iterative solver
           170 MiB given to the printing process from OS
             0 MiB allocation reported by mallinfo(arena+hblkhd)
        141243 MiB available memory on the node where the printing process lives
------------------
     ethr =  6.11E-06,  avg # of iterations =  1.0

     total cpu time spent up to now is      160.9 secs

     total energy              =    -724.09306729 Ry
     estimated scf accuracy    <       0.06350566 Ry

     total magnetization       =     2.00 Bohr mag/cell
     absolute magnetization    =     2.20 Bohr mag/cell

     iteration # 81     ecut=    60.00 Ry     beta= 0.70
     Davidson diagonalization with overlap

[...]

     total magnetization       =     2.00 Bohr mag/cell
     absolute magnetization    =     2.18 Bohr mag/cell

     iteration #578     ecut=    60.00 Ry     beta= 0.70
     Davidson diagonalization with overlap

---- Real-time Memory Report at c_bands before calling an iterative solver
           170 MiB given to the printing process from OS
             0 MiB allocation reported by mallinfo(arena+hblkhd)
        141241 MiB available memory on the node where the printing process lives
------------------
     ethr =  2.09E-06,  avg # of iterations =  1.0

     total cpu time spent up to now is     1086.1 secs

     total energy              =    -724.09382231 Ry
     estimated scf accuracy    <       0.03433154 Ry

     total magnetization       =     2.00 Bohr mag/cell
     absolute magnetization    =     2.19 Bohr mag/cell

     iteration #579     ecut=    60.00 Ry     beta= 0.70
     Davidson diagonalization with overlap

---- Real-time Memory Report at c_bands before calling an iterative solver
           170 MiB given to the printing process from OS
             0 MiB allocation reported by mallinfo(arena+hblkhd)
        141241 MiB available memory on the node where the printing process lives
------------------
     ethr =  2.09E-06,  avg # of iterations =  1.0

     total cpu time spent up to now is     1086.3 secs

     total energy              =    -724.09382297 Ry
     estimated scf accuracy    <       0.03433144 Ry

     total magnetization       =     2.00 Bohr mag/cell
     absolute magnetization    =     2.19 Bohr mag/cell

     iteration #580     ecut=    60.00 Ry     beta= 0.70
     Davidson diagonalization with overlap

---- Real-time Memory Report at c_bands before calling an iterative solver
           170 MiB given to the printing process from OS
             0 MiB allocation reported by mallinfo(arena+hblkhd)
        141241 MiB available memory on the node where the printing process lives
------------------
     ethr =  2.09E-06,  avg # of iterations =  1.0

     total cpu time spent up to now is     1086.9 secs

     total energy              =    -724.09382257 Ry
     estimated scf accuracy    <       0.03436551 Ry

     total magnetization       =     2.00 Bohr mag/cell
     absolute magnetization    =     2.19 Bohr mag/cell

     iteration #581     ecut=    60.00 Ry     beta= 0.70
     Davidson diagonalization with overlap

---- Real-time Memory Report at c_bands before calling an iterative solver
           170 MiB given to the printing process from OS
             0 MiB allocation reported by mallinfo(arena+hblkhd)
        141240 MiB available memory on the node where the printing process lives
------------------
     ethr =  2.09E-06,  avg # of iterations =  1.0

     total cpu time spent up to now is     1088.0 secs

     total energy              =    -724.09382215 Ry
     estimated scf accuracy    <       0.03434872 Ry

     total magnetization       =     2.00 Bohr mag/cell
     absolute magnetization    =     2.19 Bohr mag/cell

     iteration #582     ecut=    60.00 Ry     beta= 0.70
     Davidson diagonalization with overlap

---- Real-time Memory Report at c_bands before calling an iterative solver
           170 MiB given to the printing process from OS
             0 MiB allocation reported by mallinfo(arena+hblkhd)
        141241 MiB available memory on the node where the printing process lives
------------------
     ethr =  2.09E-06,  avg # of iterations =  1.0

     total cpu time spent up to now is     1088.7 secs

     total energy              =    -724.09382222 Ry
     estimated scf accuracy    <       0.03432191 Ry

     total magnetization       =     2.00 Bohr mag/cell
     absolute magnetization    =     2.19 Bohr mag/cell

     iteration #583     ecut=    60.00 Ry     beta= 0.70
     Davidson diagonalization with overlap

---- Real-time Memory Report at c_bands before calling an iterative solver
           170 MiB given to the printing process from OS
             0 MiB allocation reported by mallinfo(arena+hblkhd)
        141241 MiB available memory on the node where the printing process lives
------------------
     ethr =  2.09E-06,  avg # of iterations =  1.0

     total cpu time spent up to now is     1089.5 secs

     total energy              =    -724.09382233 Ry
     estimated scf accuracy    <       0.03433173 Ry

     total magnetization       =     2.00 Bohr mag/cell
     absolute magnetization    =     2.19 Bohr mag/cell

     iteration #584     ecut=    60.00 Ry     beta= 0.70
     Davidson diagonalization with overlap

---- Real-time Memory Report at c_bands before calling an iterative solver
           170 MiB given to the printing process from OS
             0 MiB allocation reported by mallinfo(arena+hblkhd)
        141240 MiB available memory on the node where the printing process lives
------------------
     ethr =  2.09E-06,  avg # of iterations =  1.0

     total cpu time spent up to now is     1090.2 secs

     total energy              =    -724.09382187 Ry
     estimated scf accuracy    <       0.03433607 Ry

     total magnetization       =     2.00 Bohr mag/cell
     absolute magnetization    =     2.19 Bohr mag/cell

     iteration #585     ecut=    60.00 Ry     beta= 0.70
     Davidson diagonalization with overlap

---- Real-time Memory Report at c_bands before calling an iterative solver
           170 MiB given to the printing process from OS
             0 MiB allocation reported by mallinfo(arena+hblkhd)
        141228 MiB available memory on the node where the printing process lives
------------------
     ethr =  2.09E-06,  avg # of iterations =  1.0

     total cpu time spent up to now is     1092.7 secs

     total energy              =    -724.09382155 Ry
     estimated scf accuracy    <       0.03428981 Ry

     total magnetization       =     2.00 Bohr mag/cell
     absolute magnetization    =     2.19 Bohr mag/cell

     iteration #586     ecut=    60.00 Ry     beta= 0.70
     Davidson diagonalization with overlap

---- Real-time Memory Report at c_bands before calling an iterative solver
           170 MiB given to the printing process from OS
             0 MiB allocation reported by mallinfo(arena+hblkhd)
        141241 MiB available memory on the node where the printing process lives
------------------
     ethr =  2.09E-06,  avg # of iterations =  1.0

     total cpu time spent up to now is     1092.8 secs

     total energy              =    -724.09382135 Ry
     estimated scf accuracy    <       0.03430289 Ry

     total magnetization       =     2.00 Bohr mag/cell
     absolute magnetization    =     2.18 Bohr mag/cell

     iteration #587     ecut=    60.00 Ry     beta= 0.70
     Davidson diagonalization with overlap

---- Real-time Memory Report at c_bands before calling an iterative solver
           170 MiB given to the printing process from OS
             0 MiB allocation reported by mallinfo(arena+hblkhd)
        141230 MiB available memory on the node where the printing process lives
------------------
     ethr =  2.09E-06,  avg # of iterations =  1.0

     total cpu time spent up to now is     1093.8 secs

     total energy              =    -724.09382168 Ry
     estimated scf accuracy    <       0.03430016 Ry

     total magnetization       =     2.00 Bohr mag/cell
     absolute magnetization    =     2.18 Bohr mag/cell

     iteration #588     ecut=    60.00 Ry     beta= 0.70
     Davidson diagonalization with overlap

---- Real-time Memory Report at c_bands before calling an iterative solver
           170 MiB given to the printing process from OS
             0 MiB allocation reported by mallinfo(arena+hblkhd)
        141241 MiB available memory on the node where the printing process lives
------------------
     ethr =  2.09E-06,  avg # of iterations =  1.0

     total cpu time spent up to now is     1094.2 secs

     total energy              =    -724.09382097 Ry
     estimated scf accuracy    <       0.03421378 Ry

     total magnetization       =     2.00 Bohr mag/cell
     absolute magnetization    =     2.19 Bohr mag/cell

     iteration #589     ecut=    60.00 Ry     beta= 0.70
     Davidson diagonalization with overlap

---- Real-time Memory Report at c_bands before calling an iterative solver
           170 MiB given to the printing process from OS
             0 MiB allocation reported by mallinfo(arena+hblkhd)
        141241 MiB available memory on the node where the printing process lives
------------------
     ethr =  2.09E-06,  avg # of iterations =  1.0

     total cpu time spent up to now is     1094.7 secs

     total energy              =    -724.09382206 Ry
     estimated scf accuracy    <       0.03432068 Ry

     total magnetization       =     2.00 Bohr mag/cell
     absolute magnetization    =     2.19 Bohr mag/cell

     iteration #590     ecut=    60.00 Ry     beta= 0.70
     Davidson diagonalization with overlap

---- Real-time Memory Report at c_bands before calling an iterative solver
           170 MiB given to the printing process from OS
             0 MiB allocation reported by mallinfo(arena+hblkhd)
        141241 MiB available memory on the node where the printing process lives
------------------
     ethr =  2.09E-06,  avg # of iterations =  1.0

     total cpu time spent up to now is     1095.4 secs

     total energy              =    -724.09382191 Ry
     estimated scf accuracy    <       0.03431132 Ry

     total magnetization       =     2.00 Bohr mag/cell
     absolute magnetization    =     2.19 Bohr mag/cell

     iteration #591     ecut=    60.00 Ry     beta= 0.70
     Davidson diagonalization with overlap

---- Real-time Memory Report at c_bands before calling an iterative solver
           170 MiB given to the printing process from OS
             0 MiB allocation reported by mallinfo(arena+hblkhd)
        141237 MiB available memory on the node where the printing process lives
------------------
     ethr =  2.09E-06,  avg # of iterations =  1.0

     total cpu time spent up to now is     1096.8 secs

     total energy              =    -724.09382172 Ry
     estimated scf accuracy    <       0.03430129 Ry

     total magnetization       =     2.00 Bohr mag/cell
     absolute magnetization    =     2.19 Bohr mag/cell

     iteration #592     ecut=    60.00 Ry     beta= 0.70
     Davidson diagonalization with overlap

---- Real-time Memory Report at c_bands before calling an iterative solver
           170 MiB given to the printing process from OS
             0 MiB allocation reported by mallinfo(arena+hblkhd)
        141232 MiB available memory on the node where the printing process lives
------------------
     ethr =  2.09E-06,  avg # of iterations =  1.0

     total cpu time spent up to now is     1097.2 secs

     total energy              =    -724.09382141 Ry
     estimated scf accuracy    <       0.03429492 Ry

     total magnetization       =     2.00 Bohr mag/cell
     absolute magnetization    =     2.19 Bohr mag/cell

     iteration #593     ecut=    60.00 Ry     beta= 0.70
     Davidson diagonalization with overlap

---- Real-time Memory Report at c_bands before calling an iterative solver
           170 MiB given to the printing process from OS
             0 MiB allocation reported by mallinfo(arena+hblkhd)
        141240 MiB available memory on the node where the printing process lives
------------------
     ethr =  2.09E-06,  avg # of iterations =  1.0

     total cpu time spent up to now is     1097.3 secs

     total energy              =    -724.09382155 Ry
     estimated scf accuracy    <       0.03426042 Ry

     total magnetization       =     2.00 Bohr mag/cell
     absolute magnetization    =     2.19 Bohr mag/cell

     iteration #594     ecut=    60.00 Ry     beta= 0.70
     Davidson diagonalization with overlap

---- Real-time Memory Report at c_bands before calling an iterative solver
           170 MiB given to the printing process from OS
             0 MiB allocation reported by mallinfo(arena+hblkhd)
        141240 MiB available memory on the node where the printing process lives
------------------
     ethr =  2.09E-06,  avg # of iterations =  1.0

     total cpu time spent up to now is     1097.5 secs

     total energy              =    -724.09382169 Ry
     estimated scf accuracy    <       0.03427567 Ry

     total magnetization       =     2.00 Bohr mag/cell
     absolute magnetization    =     2.19 Bohr mag/cell

     iteration #595     ecut=    60.00 Ry     beta= 0.70
     Davidson diagonalization with overlap

---- Real-time Memory Report at c_bands before calling an iterative solver
           170 MiB given to the printing process from OS
             0 MiB allocation reported by mallinfo(arena+hblkhd)
        141240 MiB available memory on the node where the printing process lives
------------------
     ethr =  2.09E-06,  avg # of iterations =  1.0

     total cpu time spent up to now is     1098.3 secs

     total energy              =    -724.09382139 Ry
     estimated scf accuracy    <       0.03427554 Ry

     total magnetization       =     2.00 Bohr mag/cell
     absolute magnetization    =     2.19 Bohr mag/cell

     iteration #596     ecut=    60.00 Ry     beta= 0.70
     Davidson diagonalization with overlap

---- Real-time Memory Report at c_bands before calling an iterative solver
           170 MiB given to the printing process from OS
             0 MiB allocation reported by mallinfo(arena+hblkhd)
        141226 MiB available memory on the node where the printing process lives
------------------
     ethr =  2.09E-06,  avg # of iterations =  1.0

     total cpu time spent up to now is     1098.7 secs

     total energy              =    -724.09382162 Ry
     estimated scf accuracy    <       0.03420158 Ry

     total magnetization       =     2.00 Bohr mag/cell
     absolute magnetization    =     2.18 Bohr mag/cell

     iteration #597     ecut=    60.00 Ry     beta= 0.70
     Davidson diagonalization with overlap

---- Real-time Memory Report at c_bands before calling an iterative solver
           170 MiB given to the printing process from OS
             0 MiB allocation reported by mallinfo(arena+hblkhd)
        141239 MiB available memory on the node where the printing process lives
------------------
     ethr =  2.09E-06,  avg # of iterations =  1.0

     total cpu time spent up to now is     1110.9 secs

     total energy              =    -724.09382171 Ry
     estimated scf accuracy    <       0.03420350 Ry

     total magnetization       =     2.00 Bohr mag/cell
     absolute magnetization    =     2.19 Bohr mag/cell

     iteration #598     ecut=    60.00 Ry     beta= 0.70
     Davidson diagonalization with overlap

---- Real-time Memory Report at c_bands before calling an iterative solver
           170 MiB given to the printing process from OS
             0 MiB allocation reported by mallinfo(arena+hblkhd)
        141227 MiB available memory on the node where the printing process lives
------------------
     ethr =  2.09E-06,  avg # of iterations =  1.0

     total cpu time spent up to now is     1114.2 secs

     total energy              =    -724.09382163 Ry
     estimated scf accuracy    <       0.03421483 Ry

     total magnetization       =     2.00 Bohr mag/cell
     absolute magnetization    =     2.19 Bohr mag/cell

     iteration #599     ecut=    60.00 Ry     beta= 0.70
     Davidson diagonalization with overlap

---- Real-time Memory Report at c_bands before calling an iterative solver
           170 MiB given to the printing process from OS
             0 MiB allocation reported by mallinfo(arena+hblkhd)
        141239 MiB available memory on the node where the printing process lives
------------------
     ethr =  2.09E-06,  avg # of iterations =  1.0

     total cpu time spent up to now is     1114.3 secs

     total energy              =    -724.09382162 Ry
     estimated scf accuracy    <       0.03421478 Ry

     total magnetization       =     2.00 Bohr mag/cell
     absolute magnetization    =     2.18 Bohr mag/cell

     iteration #600     ecut=    60.00 Ry     beta= 0.70
     Davidson diagonalization with overlap

---- Real-time Memory Report at c_bands before calling an iterative solver
           170 MiB given to the printing process from OS
             0 MiB allocation reported by mallinfo(arena+hblkhd)
        141241 MiB available memory on the node where the printing process lives
------------------
     ethr =  2.09E-06,  avg # of iterations =  1.0

     total cpu time spent up to now is     1124.4 secs

     total energy              =    -724.09382157 Ry
     estimated scf accuracy    <       0.03421558 Ry

     total magnetization       =     2.00 Bohr mag/cell
     absolute magnetization    =     2.18 Bohr mag/cell

     End of self-consistent calculation

     convergence NOT achieved after 600 iterations: stopping

     Writing config to output data dir ./pwscf.save/ :
     XML data file, charge density distributed wavefunctions
 
     init_run     :      0.42s CPU      0.76s WALL (       1 calls)
     electrons    :   1094.19s CPU   1124.88s WALL (       1 calls)

     Called by init_run:
     wfcinit      :      0.13s CPU      0.15s WALL (       1 calls)
     wfcinit:wfcr :      0.13s CPU      0.15s WALL (       1 calls)
     potinit      :      0.06s CPU      0.07s WALL (       1 calls)
     hinit0       :      0.08s CPU      0.38s WALL (       1 calls)

     Called by electrons:
     c_bands      :    850.74s CPU    871.80s WALL (     600 calls)
     sum_band     :     80.78s CPU     81.52s WALL (     600 calls)
     v_of_rho     :     73.09s CPU     78.34s WALL (     601 calls)
     v_h          :      8.66s CPU      9.68s WALL (     601 calls)
     v_xc         :     64.43s CPU     68.65s WALL (     601 calls)
     mix_rho      :     18.45s CPU     20.39s WALL (     600 calls)

     Called by c_bands:
     init_us_2    :      1.17s CPU      1.48s WALL (    1201 calls)
     regterg      :    429.46s CPU    448.41s WALL (     601 calls)

     Called by sum_band:
     sum_band:wei :      1.54s CPU      1.56s WALL (     600 calls)
     sum_band:loo :     38.68s CPU     39.11s WALL (     600 calls)
     sum_band:buf :      0.00s CPU      0.00s WALL (     600 calls)
     sum_band:ini :      0.58s CPU      0.74s WALL (     600 calls)

     Called by *egterg:
     rdiaghg      :     31.77s CPU     32.84s WALL (    1851 calls)
     regterg:over :      7.75s CPU      7.90s WALL (    1250 calls)
     regterg:upda :      5.51s CPU      5.66s WALL (    1250 calls)
     regterg:last :      3.34s CPU      3.39s WALL (     771 calls)
     rdiaghg:chol :      0.98s CPU      1.01s WALL (    1851 calls)
     rdiaghg:inve :      0.23s CPU      0.29s WALL (    1851 calls)
     rdiaghg:para :      2.66s CPU      2.81s WALL (    3702 calls)
     h_psi        :    375.00s CPU    392.28s WALL (    1852 calls)
     g_psi        :      0.06s CPU      0.06s WALL (    1250 calls)

     Called by h_psi:
     h_psi:calbec :     74.09s CPU     77.19s WALL (    1852 calls)
     vloc_psi     :    298.37s CPU    312.39s WALL (    1852 calls)
                                        0.00s GPU  (    1852 calls)
     add_vuspsi   :      2.35s CPU      2.52s WALL (    1852 calls)

     General routines
     calbec       :     74.09s CPU     77.19s WALL (    1852 calls)
     fft          :     39.59s CPU     42.48s WALL (    7813 calls)
     ffts         :      1.05s CPU      1.08s WALL (     600 calls)
     fftw         :    333.36s CPU    347.57s WALL (  237490 calls)
     davcio       :      0.00s CPU      0.01s WALL (      19 calls)
 
     Parallel routines
 
     PWSCF        :  18m15.17s CPU  18m46.69s WALL

 
   This run was terminated on:  18:36:51   4Nov2025            

=------------------------------------------------------------------------------=
   JOB DONE.
=------------------------------------------------------------------------------=
