
     Program PWSCF v.7.5 starts on  5Nov2025 at 15:48:36 

     This program is part of the open-source Quantum ESPRESSO suite
     for quantum simulation of materials; please cite
         "P. Giannozzi et al., J. Phys.:Condens. Matter 21 395502 (2009);
         "P. Giannozzi et al., J. Phys.:Condens. Matter 29 465901 (2017);
         "P. Giannozzi et al., J. Chem. Phys. 152 154105 (2020);
          URL http://www.quantum-espresso.org", 
     in publications or presentations arising from this work. More details at
     http://www.quantum-espresso.org/quote

     Parallel version (MPI), running on    96 processors

     MPI processes distributed on     2 nodes
     142994 MiB available memory on the printing compute node when the environment starts
 
     Reading input from pw.in
Warning: card &CELL ignored
Warning: card &FCP ignored
Warning: card &RISM ignored

     Current dimensions of program PWSCF are:
     Max number of different atomic species (ntypx) = 10
     Max number of k-points (npk) =  40000
     Max angular momentum in pseudopotentials (lmaxx) =  4

     gamma-point specific algorithms are used
     Message from routine setup:
     using ibrav=0 with symmetry is DISCOURAGED, use correct ibrav instead
 
     K-points division:     npool     =       2
     R & G space division:  proc/nbgrp/npool/nimage =      48
     Subspace diagonalization in iterative solution of the eigenvalue problem:
     one sub-group per band group will be used
     scalapack distributed-memory algorithm (size of sub-group:  2*  2 procs)

 
     Parallelization info
     --------------------
     sticks:   dense  smooth     PW     G-vecs:    dense   smooth      PW
     Min          71      71     18                 3192     3192     398
     Max          74      74     20                 3204     3204     406
     Sum        3457    3457    869               153507   153507   19309
 
     Using Slab Decomposition
 


     bravais-lattice index     =            0
     lattice parameter (alat)  =      13.4813  a.u.
     unit-cell volume          =    2450.1683 (a.u.)^3
     number of atoms/cell      =           63
     number of atomic types    =            2
     number of electrons       =       254.00 (up: 128.00, down: 126.00)
     number of Kohn-Sham states=          152
     kinetic-energy cutoff     =      60.0000  Ry
     charge density cutoff     =     240.0000  Ry
     scf convergence threshold =      1.0E-08
     mixing beta               =       0.7000
     number of iterations used =            8  plain     mixing
     energy convergence thresh.=      1.0E-04
     force convergence thresh. =      3.9E-04
     Exchange-correlation= PBE
                           (   1   4   3   4   0   0   0)
     nstep                     =          100


     celldm(1)=  13.481306  celldm(2)=   0.000000  celldm(3)=   0.000000
     celldm(4)=   0.000000  celldm(5)=   0.000000  celldm(6)=   0.000000

     crystal axes: (cart. coord. in units of alat)
               a(1) = (   1.000000   0.000000   0.000000 )  
               a(2) = (   0.000000   1.000000   0.000000 )  
               a(3) = (   0.000000   0.000000   1.000000 )  

     reciprocal axes: (cart. coord. in units 2 pi/alat)
               b(1) = (  1.000000  0.000000  0.000000 )  
               b(2) = (  0.000000  1.000000  0.000000 )  
               b(3) = (  0.000000  0.000000  1.000000 )  


     PseudoPot. # 1 for N  read from file:
     /home/sstaylor/espresso/pseudo/N_ONCV_PBE-1.2.upf
     MD5 check sum: c233fa8df51455e992258b7c3dee8a9f
     Pseudo is Norm-conserving, Zval =  5.0
     Generated using ONCVPSP code by D. R. Hamann
     Using radial grid of  602 points,  4 beta functions with: 
                l(1) =   0
                l(2) =   0
                l(3) =   1
                l(4) =   1

     PseudoPot. # 2 for C  read from file:
     /home/sstaylor/espresso/pseudo/C_ONCV_PBE-1.2.upf
     MD5 check sum: 1a5f83a7b1f58d24996abe00ed223ac6
     Pseudo is Norm-conserving, Zval =  4.0
     Generated using ONCVPSP code by D. R. Hamann
     Using radial grid of  602 points,  4 beta functions with: 
                l(1) =   0
                l(2) =   0
                l(3) =   1
                l(4) =   1

     atomic species   valence    mass     pseudopotential
     N                 5.00    14.00700     N ( 1.00)
     C                 4.00    12.01100     C ( 1.00)

     Starting magnetic structure 
     atomic species   magnetization
     N               0.000
     C               0.000

      6 Sym. Ops. (no inversion) found


                                    s                        frac. trans.

      isym =  1     identity                                     

 cryst.   s( 1) = (     1          0          0      )
                  (     0          1          0      )
                  (     0          0          1      )

 cart.    s( 1) = (  1.0000000  0.0000000  0.0000000 )
                  (  0.0000000  1.0000000  0.0000000 )
                  (  0.0000000  0.0000000  1.0000000 )


      isym =  2     120 deg rotation - cart. axis [-1,-1,-1]     

 cryst.   s( 2) = (     0          0          1      )
                  (     1          0          0      )
                  (     0          1          0      )

 cart.    s( 2) = (  0.0000000  1.0000000  0.0000000 )
                  (  0.0000000  0.0000000  1.0000000 )
                  (  1.0000000  0.0000000  0.0000000 )


      isym =  3     120 deg rotation - cart. axis [1,1,1]        

 cryst.   s( 3) = (     0          1          0      )
                  (     0          0          1      )
                  (     1          0          0      )

 cart.    s( 3) = (  0.0000000  0.0000000  1.0000000 )
                  (  1.0000000  0.0000000  0.0000000 )
                  (  0.0000000  1.0000000  0.0000000 )


      isym =  4     inv. 180 deg rotation - cart. axis [1,-1,0]  

 cryst.   s( 4) = (     0          1          0      )
                  (     1          0          0      )
                  (     0          0          1      )

 cart.    s( 4) = (  0.0000000  1.0000000  0.0000000 )
                  (  1.0000000  0.0000000  0.0000000 )
                  (  0.0000000  0.0000000  1.0000000 )


      isym =  5     inv. 180 deg rotation - cart. axis [-1,0,1]  

 cryst.   s( 5) = (     0          0          1      )
                  (     0          1          0      )
                  (     1          0          0      )

 cart.    s( 5) = (  0.0000000  0.0000000  1.0000000 )
                  (  0.0000000  1.0000000  0.0000000 )
                  (  1.0000000  0.0000000  0.0000000 )


      isym =  6     inv. 180 deg rotation - cart. axis [0,1,-1]  

 cryst.   s( 6) = (     1          0          0      )
                  (     0          0          1      )
                  (     0          1          0      )

 cart.    s( 6) = (  1.0000000  0.0000000  0.0000000 )
                  (  0.0000000  0.0000000  1.0000000 )
                  (  0.0000000  1.0000000  0.0000000 )


   Cartesian axes

     site n.     atom                  positions (alat units)
         1        N      tau(   1) = (  -0.0130717  -0.0130717  -0.0130717  )
         2        C      tau(   2) = (  -0.0078610   0.2607625   0.2607625  )
         3        C      tau(   3) = (   0.1236981   0.3746848   0.3746848  )
         4        C      tau(   4) = (   0.2607625  -0.0078610   0.2607625  )
         5        C      tau(   5) = (   0.3746848   0.1236981   0.3746848  )
         6        C      tau(   6) = (   0.2607625   0.2607625  -0.0078610  )
         7        C      tau(   7) = (   0.3746848   0.3746848   0.1236981  )
         8        C      tau(   8) = (   0.0007517   0.0007517   0.4988587  )
         9        C      tau(   9) = (   0.1251291   0.1251291   0.6250516  )
        10        C      tau(  10) = (   0.0014372   0.2476607   0.7521916  )
        11        C      tau(  11) = (   0.1266329   0.3730745   0.8775065  )
        12        C      tau(  12) = (   0.2476607   0.0014372   0.7521916  )
        13        C      tau(  13) = (   0.3730745   0.1266329   0.8775065  )
        14        C      tau(  14) = (   0.2498467   0.2498467   0.4996267  )
        15        C      tau(  15) = (   0.3749463   0.3749463   0.6249280  )
        16        C      tau(  16) = (   0.0007517   0.4988587   0.0007517  )
        17        C      tau(  17) = (   0.1251291   0.6250516   0.1251291  )
        18        C      tau(  18) = (   0.0014372   0.7521916   0.2476607  )
        19        C      tau(  19) = (   0.1266329   0.8775065   0.3730745  )
        20        C      tau(  20) = (   0.2498467   0.4996267   0.2498467  )
        21        C      tau(  21) = (   0.3749463   0.6249280   0.3749463  )
        22        C      tau(  22) = (   0.2476607   0.7521916   0.0014372  )
        23        C      tau(  23) = (   0.3730745   0.8775065   0.1266329  )
        24        C      tau(  24) = (   0.0010116   0.5014264   0.5014264  )
        25        C      tau(  25) = (   0.1250381   0.6250852   0.6250852  )
        26        C      tau(  26) = (  -0.0003059   0.7483805   0.7483805  )
        27        C      tau(  27) = (   0.1189720   0.8751585   0.8751585  )
        28        C      tau(  28) = (   0.2496290   0.5009902   0.7494822  )
        29        C      tau(  29) = (   0.3740517   0.6261334   0.8754230  )
        30        C      tau(  30) = (   0.2496290   0.7494822   0.5009902  )
        31        C      tau(  31) = (   0.3740517   0.8754230   0.6261334  )
        32        C      tau(  32) = (   0.4988587   0.0007517   0.0007517  )
        33        C      tau(  33) = (   0.6250516   0.1251291   0.1251291  )
        34        C      tau(  34) = (   0.4996267   0.2498467   0.2498467  )
        35        C      tau(  35) = (   0.6249280   0.3749463   0.3749463  )
        36        C      tau(  36) = (   0.7521916   0.0014372   0.2476607  )
        37        C      tau(  37) = (   0.8775065   0.1266329   0.3730745  )
        38        C      tau(  38) = (   0.7521916   0.2476607   0.0014372  )
        39        C      tau(  39) = (   0.8775065   0.3730745   0.1266329  )
        40        C      tau(  40) = (   0.5014264   0.0010116   0.5014264  )
        41        C      tau(  41) = (   0.6250852   0.1250381   0.6250852  )
        42        C      tau(  42) = (   0.5009902   0.2496290   0.7494822  )
        43        C      tau(  43) = (   0.6261334   0.3740517   0.8754230  )
        44        C      tau(  44) = (   0.7483805  -0.0003059   0.7483805  )
        45        C      tau(  45) = (   0.8751585   0.1189720   0.8751585  )
        46        C      tau(  46) = (   0.7494822   0.2496290   0.5009902  )
        47        C      tau(  47) = (   0.8754230   0.3740517   0.6261334  )
        48        C      tau(  48) = (   0.5014264   0.5014264   0.0010116  )
        49        C      tau(  49) = (   0.6250852   0.6250852   0.1250381  )
        50        C      tau(  50) = (   0.5009902   0.7494822   0.2496290  )
        51        C      tau(  51) = (   0.6261334   0.8754230   0.3740517  )
        52        C      tau(  52) = (   0.7494822   0.5009902   0.2496290  )
        53        C      tau(  53) = (   0.8754230   0.6261334   0.3740517  )
        54        C      tau(  54) = (   0.7483805   0.7483805  -0.0003059  )
        55        C      tau(  55) = (   0.8751585   0.8751585   0.1189720  )
        56        C      tau(  56) = (   0.4999757   0.4999757   0.4999757  )
        57        C      tau(  57) = (   0.6249536   0.6249536   0.6249536  )
        58        C      tau(  58) = (   0.4990957   0.7503802   0.7503802  )
        59        C      tau(  59) = (   0.6235333   0.8749829   0.8749829  )
        60        C      tau(  60) = (   0.7503802   0.4990957   0.7503802  )
        61        C      tau(  61) = (   0.8749829   0.6235333   0.8749829  )
        62        C      tau(  62) = (   0.7503802   0.7503802   0.4990957  )
        63        C      tau(  63) = (   0.8749829   0.8749829   0.6235333  )

   Crystallographic axes

     site n.     atom                  positions (cryst. coord.)
         1        N      tau(   1) = ( -0.0130717 -0.0130717 -0.0130717  )
         2        C      tau(   2) = ( -0.0078610  0.2607625  0.2607625  )
         3        C      tau(   3) = (  0.1236981  0.3746848  0.3746848  )
         4        C      tau(   4) = (  0.2607625 -0.0078610  0.2607625  )
         5        C      tau(   5) = (  0.3746848  0.1236981  0.3746848  )
         6        C      tau(   6) = (  0.2607625  0.2607625 -0.0078610  )
         7        C      tau(   7) = (  0.3746848  0.3746848  0.1236981  )
         8        C      tau(   8) = (  0.0007517  0.0007517  0.4988587  )
         9        C      tau(   9) = (  0.1251291  0.1251291  0.6250516  )
        10        C      tau(  10) = (  0.0014372  0.2476607  0.7521916  )
        11        C      tau(  11) = (  0.1266329  0.3730745  0.8775065  )
        12        C      tau(  12) = (  0.2476607  0.0014372  0.7521916  )
        13        C      tau(  13) = (  0.3730745  0.1266329  0.8775065  )
        14        C      tau(  14) = (  0.2498467  0.2498467  0.4996267  )
        15        C      tau(  15) = (  0.3749463  0.3749463  0.6249280  )
        16        C      tau(  16) = (  0.0007517  0.4988587  0.0007517  )
        17        C      tau(  17) = (  0.1251291  0.6250516  0.1251291  )
        18        C      tau(  18) = (  0.0014372  0.7521916  0.2476607  )
        19        C      tau(  19) = (  0.1266329  0.8775065  0.3730745  )
        20        C      tau(  20) = (  0.2498467  0.4996267  0.2498467  )
        21        C      tau(  21) = (  0.3749463  0.6249280  0.3749463  )
        22        C      tau(  22) = (  0.2476607  0.7521916  0.0014372  )
        23        C      tau(  23) = (  0.3730745  0.8775065  0.1266329  )
        24        C      tau(  24) = (  0.0010116  0.5014264  0.5014264  )
        25        C      tau(  25) = (  0.1250381  0.6250852  0.6250852  )
        26        C      tau(  26) = ( -0.0003059  0.7483805  0.7483805  )
        27        C      tau(  27) = (  0.1189720  0.8751585  0.8751585  )
        28        C      tau(  28) = (  0.2496290  0.5009902  0.7494822  )
        29        C      tau(  29) = (  0.3740517  0.6261334  0.8754230  )
        30        C      tau(  30) = (  0.2496290  0.7494822  0.5009902  )
        31        C      tau(  31) = (  0.3740517  0.8754230  0.6261334  )
        32        C      tau(  32) = (  0.4988587  0.0007517  0.0007517  )
        33        C      tau(  33) = (  0.6250516  0.1251291  0.1251291  )
        34        C      tau(  34) = (  0.4996267  0.2498467  0.2498467  )
        35        C      tau(  35) = (  0.6249280  0.3749463  0.3749463  )
        36        C      tau(  36) = (  0.7521916  0.0014372  0.2476607  )
        37        C      tau(  37) = (  0.8775065  0.1266329  0.3730745  )
        38        C      tau(  38) = (  0.7521916  0.2476607  0.0014372  )
        39        C      tau(  39) = (  0.8775065  0.3730745  0.1266329  )
        40        C      tau(  40) = (  0.5014264  0.0010116  0.5014264  )
        41        C      tau(  41) = (  0.6250852  0.1250381  0.6250852  )
        42        C      tau(  42) = (  0.5009902  0.2496290  0.7494822  )
        43        C      tau(  43) = (  0.6261334  0.3740517  0.8754230  )
        44        C      tau(  44) = (  0.7483805 -0.0003059  0.7483805  )
        45        C      tau(  45) = (  0.8751585  0.1189720  0.8751585  )
        46        C      tau(  46) = (  0.7494822  0.2496290  0.5009902  )
        47        C      tau(  47) = (  0.8754230  0.3740517  0.6261334  )
        48        C      tau(  48) = (  0.5014264  0.5014264  0.0010116  )
        49        C      tau(  49) = (  0.6250852  0.6250852  0.1250381  )
        50        C      tau(  50) = (  0.5009902  0.7494822  0.2496290  )
        51        C      tau(  51) = (  0.6261334  0.8754230  0.3740517  )
        52        C      tau(  52) = (  0.7494822  0.5009902  0.2496290  )
        53        C      tau(  53) = (  0.8754230  0.6261334  0.3740517  )
        54        C      tau(  54) = (  0.7483805  0.7483805 -0.0003059  )
        55        C      tau(  55) = (  0.8751585  0.8751585  0.1189720  )
        56        C      tau(  56) = (  0.4999757  0.4999757  0.4999757  )
        57        C      tau(  57) = (  0.6249536  0.6249536  0.6249536  )
        58        C      tau(  58) = (  0.4990957  0.7503802  0.7503802  )
        59        C      tau(  59) = (  0.6235333  0.8749829  0.8749829  )
        60        C      tau(  60) = (  0.7503802  0.4990957  0.7503802  )
        61        C      tau(  61) = (  0.8749829  0.6235333  0.8749829  )
        62        C      tau(  62) = (  0.7503802  0.7503802  0.4990957  )
        63        C      tau(  63) = (  0.8749829  0.8749829  0.6235333  )

     number of k points=     1
                       cart. coord. in units 2pi/alat
        k(    1) = (   0.0000000   0.0000000   0.0000000), wk =   1.0000000

                       cryst. coord.
        k(    1) = (   0.0000000   0.0000000   0.0000000), wk =   1.0000000

     Dense  grid:    76754 G-vectors     FFT dimensions: (  72,  72,  72)

     Occupations read from input 

      Spin-up

        1.0000   1.0000   1.0000   1.0000   1.0000   1.0000   1.0000   1.0000
        1.0000   1.0000   1.0000   1.0000   1.0000   1.0000   1.0000   1.0000
        1.0000   1.0000   1.0000   1.0000   1.0000   1.0000   1.0000   1.0000
        1.0000   1.0000   1.0000   1.0000   1.0000   1.0000   1.0000   1.0000
        1.0000   1.0000   1.0000   1.0000   1.0000   1.0000   1.0000   1.0000
        1.0000   1.0000   1.0000   1.0000   1.0000   1.0000   1.0000   1.0000
        1.0000   1.0000   1.0000   1.0000   1.0000   1.0000   1.0000   1.0000
        1.0000   1.0000   1.0000   1.0000   1.0000   1.0000   1.0000   1.0000
        1.0000   1.0000   1.0000   1.0000   1.0000   1.0000   1.0000   1.0000
        1.0000   1.0000   1.0000   1.0000   1.0000   1.0000   1.0000   1.0000
        1.0000   1.0000   1.0000   1.0000   1.0000   1.0000   1.0000   1.0000
        1.0000   1.0000   1.0000   1.0000   1.0000   1.0000   1.0000   1.0000
        1.0000   1.0000   1.0000   1.0000   1.0000   1.0000   1.0000   1.0000
        1.0000   1.0000   1.0000   1.0000   1.0000   1.0000   1.0000   1.0000
        1.0000   1.0000   1.0000   1.0000   1.0000   1.0000   1.0000   1.0000
        1.0000   1.0000   1.0000   1.0000   1.0000   1.0000   1.0000   1.0000
        0.0000   0.0000   0.0000   0.0000   0.0000   0.0000   0.0000   0.0000
        0.0000   0.0000   0.0000   0.0000   0.0000   0.0000   0.0000   0.0000
        0.0000   0.0000   0.0000   0.0000   0.0000   0.0000   0.0000   0.0000

      Spin-down

        1.0000   1.0000   1.0000   1.0000   1.0000   1.0000   1.0000   1.0000
        1.0000   1.0000   1.0000   1.0000   1.0000   1.0000   1.0000   1.0000
        1.0000   1.0000   1.0000   1.0000   1.0000   1.0000   1.0000   1.0000
        1.0000   1.0000   1.0000   1.0000   1.0000   1.0000   1.0000   1.0000
        1.0000   1.0000   1.0000   1.0000   1.0000   1.0000   1.0000   1.0000
        1.0000   1.0000   1.0000   1.0000   1.0000   1.0000   1.0000   1.0000
        1.0000   1.0000   1.0000   1.0000   1.0000   1.0000   1.0000   1.0000
        1.0000   1.0000   1.0000   1.0000   1.0000   1.0000   1.0000   1.0000
        1.0000   1.0000   1.0000   1.0000   1.0000   1.0000   1.0000   1.0000
        1.0000   1.0000   1.0000   1.0000   1.0000   1.0000   1.0000   1.0000
        1.0000   1.0000   1.0000   1.0000   1.0000   1.0000   1.0000   1.0000
        1.0000   1.0000   1.0000   1.0000   1.0000   1.0000   1.0000   1.0000
        1.0000   1.0000   1.0000   1.0000   1.0000   1.0000   1.0000   1.0000
        1.0000   1.0000   1.0000   1.0000   1.0000   1.0000   1.0000   1.0000
        1.0000   1.0000   1.0000   1.0000   1.0000   1.0000   1.0000   1.0000
        1.0000   1.0000   1.0000   1.0000   1.0000   0.0000   1.0000   0.0000
        0.0000   0.0000   0.0000   0.0000   0.0000   0.0000   0.0000   0.0000
        0.0000   0.0000   0.0000   0.0000   0.0000   0.0000   0.0000   0.0000
        0.0000   0.0000   0.0000   0.0000   0.0000   0.0000   0.0000   0.0000

     Dynamical RAM for                 wfc:       0.46 MB

     Dynamical RAM for     wfc (w. buffer):       0.46 MB

     Dynamical RAM for           str. fact:       0.05 MB

     Dynamical RAM for           local pot:       0.00 MB

     Dynamical RAM for          nlocal pot:       1.54 MB

     Dynamical RAM for                qrad:       0.71 MB

     Dynamical RAM for          rho,v,vnew:       0.62 MB

     Dynamical RAM for               rhoin:       0.21 MB

     Dynamical RAM for            rho*nmix:       0.78 MB

     Dynamical RAM for           G-vectors:       0.10 MB

     Dynamical RAM for          h,s,v(r/c):       0.53 MB

     Dynamical RAM for          <psi|beta>:       0.58 MB

     Dynamical RAM for                 psi:       0.93 MB

     Dynamical RAM for                hpsi:       0.93 MB

     Dynamical RAM for      wfcinit/wfcrot:       1.46 MB

     Estimated static dynamical RAM per process >       4.24 MB

     Estimated max dynamical RAM per process >       7.99 MB

     Estimated total dynamical RAM >     729.77 MB
     Generating pointlists ...
     new r_m :   0.0850 (alat units)  1.1454 (a.u.) for type    1
     new r_m :   0.0850 (alat units)  1.1454 (a.u.) for type    2

     Initial potential from superposition of free atoms

     starting charge     252.5655, renormalised to     254.0000
     Starting wfcs are random

     total cpu time spent up to now is        1.4 secs

     Self-consistent Calculation

     iteration #  1     ecut=    60.00 Ry     beta= 0.70
     Davidson diagonalization with overlap

---- Real-time Memory Report at c_bands before calling an iterative solver
           162 MiB given to the printing process from OS
             0 MiB allocation reported by mallinfo(arena+hblkhd)
        141890 MiB available memory on the node where the printing process lives
------------------
     ethr =  1.00E-02,  avg # of iterations = 14.0

     total cpu time spent up to now is        2.2 secs

     total energy              =    -723.43744326 Ry
     estimated scf accuracy    <       3.92340932 Ry

     total magnetization       =     2.00 Bohr mag/cell
     absolute magnetization    =     2.00 Bohr mag/cell

     iteration #  2     ecut=    60.00 Ry     beta= 0.70
     Davidson diagonalization with overlap

---- Real-time Memory Report at c_bands before calling an iterative solver
           167 MiB given to the printing process from OS
             0 MiB allocation reported by mallinfo(arena+hblkhd)
        141795 MiB available memory on the node where the printing process lives
------------------
     ethr =  1.54E-03,  avg # of iterations = 13.0

     total cpu time spent up to now is        3.1 secs

     total energy              =    -722.89979550 Ry
     estimated scf accuracy    <       2.85315964 Ry

     total magnetization       =     2.00 Bohr mag/cell
     absolute magnetization    =     2.40 Bohr mag/cell

     iteration #  3     ecut=    60.00 Ry     beta= 0.70
     Davidson diagonalization with overlap

---- Real-time Memory Report at c_bands before calling an iterative solver
           168 MiB given to the printing process from OS
             0 MiB allocation reported by mallinfo(arena+hblkhd)
        141800 MiB available memory on the node where the printing process lives
------------------
     ethr =  1.12E-03,  avg # of iterations = 14.5

     total cpu time spent up to now is        3.9 secs

     total energy              =    -723.95694741 Ry
     estimated scf accuracy    <       2.32165906 Ry

     total magnetization       =     2.00 Bohr mag/cell
     absolute magnetization    =     2.05 Bohr mag/cell

     iteration #  4     ecut=    60.00 Ry     beta= 0.70
     Davidson diagonalization with overlap

---- Real-time Memory Report at c_bands before calling an iterative solver
           169 MiB given to the printing process from OS
             0 MiB allocation reported by mallinfo(arena+hblkhd)
        141793 MiB available memory on the node where the printing process lives
------------------
     ethr =  9.14E-04,  avg # of iterations = 10.0

     total cpu time spent up to now is        4.8 secs

     total energy              =    -724.15100802 Ry
     estimated scf accuracy    <       0.36483708 Ry

     total magnetization       =     2.00 Bohr mag/cell
     absolute magnetization    =     2.11 Bohr mag/cell

     iteration #  5     ecut=    60.00 Ry     beta= 0.70
     Davidson diagonalization with overlap

---- Real-time Memory Report at c_bands before calling an iterative solver
           169 MiB given to the printing process from OS
             0 MiB allocation reported by mallinfo(arena+hblkhd)
        141790 MiB available memory on the node where the printing process lives
------------------
     ethr =  1.44E-04,  avg # of iterations = 17.0

     total cpu time spent up to now is        8.8 secs

     total energy              =    -724.17661629 Ry
     estimated scf accuracy    <       0.10207075 Ry

     total magnetization       =     2.00 Bohr mag/cell
     absolute magnetization    =     2.11 Bohr mag/cell

     iteration #  6     ecut=    60.00 Ry     beta= 0.70
     Davidson diagonalization with overlap

---- Real-time Memory Report at c_bands before calling an iterative solver
           169 MiB given to the printing process from OS
             0 MiB allocation reported by mallinfo(arena+hblkhd)
        141797 MiB available memory on the node where the printing process lives
------------------
     ethr =  4.02E-05,  avg # of iterations =  7.5

     total cpu time spent up to now is       11.1 secs

     total energy              =    -724.17710012 Ry
     estimated scf accuracy    <       0.05063484 Ry

     total magnetization       =     2.00 Bohr mag/cell
     absolute magnetization    =     2.14 Bohr mag/cell

     iteration #  7     ecut=    60.00 Ry     beta= 0.70
     Davidson diagonalization with overlap

---- Real-time Memory Report at c_bands before calling an iterative solver
           169 MiB given to the printing process from OS
             0 MiB allocation reported by mallinfo(arena+hblkhd)
        141796 MiB available memory on the node where the printing process lives
------------------
     c_bands:  2 eigenvalues not converged
     ethr =  1.99E-05,  avg # of iterations = 19.5

     total cpu time spent up to now is       11.8 secs

     total energy              =    -724.17525465 Ry
     estimated scf accuracy    <       0.04180580 Ry

     total magnetization       =     2.00 Bohr mag/cell
     absolute magnetization    =     2.15 Bohr mag/cell

     iteration #  8     ecut=    60.00 Ry     beta= 0.70
     Davidson diagonalization with overlap

---- Real-time Memory Report at c_bands before calling an iterative solver
           169 MiB given to the printing process from OS
             0 MiB allocation reported by mallinfo(arena+hblkhd)
        141785 MiB available memory on the node where the printing process lives
------------------
     ethr =  1.65E-05,  avg # of iterations =  9.5

     total cpu time spent up to now is       14.5 secs

     total energy              =    -724.17631266 Ry
     estimated scf accuracy    <       0.00978369 Ry

     total magnetization       =     2.00 Bohr mag/cell
     absolute magnetization    =     2.17 Bohr mag/cell

     iteration #  9     ecut=    60.00 Ry     beta= 0.70
     Davidson diagonalization with overlap

---- Real-time Memory Report at c_bands before calling an iterative solver
           169 MiB given to the printing process from OS
             0 MiB allocation reported by mallinfo(arena+hblkhd)
        141787 MiB available memory on the node where the printing process lives
------------------
     ethr =  3.85E-06,  avg # of iterations = 16.5

     total cpu time spent up to now is       15.4 secs

     total energy              =    -724.17954523 Ry
     estimated scf accuracy    <       0.10679230 Ry

     total magnetization       =     2.00 Bohr mag/cell
     absolute magnetization    =     2.22 Bohr mag/cell

     iteration # 10     ecut=    60.00 Ry     beta= 0.70
     Davidson diagonalization with overlap

---- Real-time Memory Report at c_bands before calling an iterative solver
           169 MiB given to the printing process from OS
             0 MiB allocation reported by mallinfo(arena+hblkhd)
        141776 MiB available memory on the node where the printing process lives
------------------
     ethr =  3.85E-06,  avg # of iterations =  2.5

     total cpu time spent up to now is       17.0 secs

     total energy              =    -724.17710028 Ry
     estimated scf accuracy    <       0.08677280 Ry

     total magnetization       =     2.00 Bohr mag/cell
     absolute magnetization    =     2.23 Bohr mag/cell

     iteration # 11     ecut=    60.00 Ry     beta= 0.70
     Davidson diagonalization with overlap

---- Real-time Memory Report at c_bands before calling an iterative solver
           169 MiB given to the printing process from OS
             0 MiB allocation reported by mallinfo(arena+hblkhd)
        141770 MiB available memory on the node where the printing process lives
------------------
     ethr =  3.85E-06,  avg # of iterations =  6.0

     total cpu time spent up to now is       17.7 secs

     total energy              =    -724.17864257 Ry
     estimated scf accuracy    <       0.01355794 Ry

     total magnetization       =     2.00 Bohr mag/cell
     absolute magnetization    =     2.22 Bohr mag/cell

     iteration # 12     ecut=    60.00 Ry     beta= 0.70
     Davidson diagonalization with overlap

---- Real-time Memory Report at c_bands before calling an iterative solver
           169 MiB given to the printing process from OS
             0 MiB allocation reported by mallinfo(arena+hblkhd)
        141777 MiB available memory on the node where the printing process lives
------------------
     ethr =  3.85E-06,  avg # of iterations =  2.0

     total cpu time spent up to now is       21.9 secs

     total energy              =    -724.17850173 Ry
     estimated scf accuracy    <       0.01623262 Ry

     total magnetization       =     2.00 Bohr mag/cell
     absolute magnetization    =     2.23 Bohr mag/cell

     iteration # 13     ecut=    60.00 Ry     beta= 0.70
     Davidson diagonalization with overlap

---- Real-time Memory Report at c_bands before calling an iterative solver
           169 MiB given to the printing process from OS
             0 MiB allocation reported by mallinfo(arena+hblkhd)
        141777 MiB available memory on the node where the printing process lives
------------------
     ethr =  3.85E-06,  avg # of iterations =  1.5

     total cpu time spent up to now is       23.1 secs

     total energy              =    -724.17955623 Ry
     estimated scf accuracy    <       0.07437362 Ry

     total magnetization       =     2.00 Bohr mag/cell
     absolute magnetization    =     2.25 Bohr mag/cell

     iteration # 14     ecut=    60.00 Ry     beta= 0.70
     Davidson diagonalization with overlap

---- Real-time Memory Report at c_bands before calling an iterative solver
           169 MiB given to the printing process from OS
             0 MiB allocation reported by mallinfo(arena+hblkhd)
        141766 MiB available memory on the node where the printing process lives
------------------
     ethr =  3.85E-06,  avg # of iterations =  1.0

     total cpu time spent up to now is       31.8 secs

     total energy              =    -724.17888172 Ry
     estimated scf accuracy    <       0.06943880 Ry

     total magnetization       =     2.00 Bohr mag/cell
     absolute magnetization    =     2.25 Bohr mag/cell

     iteration # 15     ecut=    60.00 Ry     beta= 0.70
     Davidson diagonalization with overlap

---- Real-time Memory Report at c_bands before calling an iterative solver
           169 MiB given to the printing process from OS
             0 MiB allocation reported by mallinfo(arena+hblkhd)
        141772 MiB available memory on the node where the printing process lives
------------------
     ethr =  3.85E-06,  avg # of iterations =  1.5

     total cpu time spent up to now is       32.1 secs

     total energy              =    -724.17910930 Ry
     estimated scf accuracy    <       0.05622915 Ry

     total magnetization       =     2.00 Bohr mag/cell
     absolute magnetization    =     2.25 Bohr mag/cell

     iteration # 16     ecut=    60.00 Ry     beta= 0.70
     Davidson diagonalization with overlap

---- Real-time Memory Report at c_bands before calling an iterative solver
           169 MiB given to the printing process from OS
             0 MiB allocation reported by mallinfo(arena+hblkhd)
        141773 MiB available memory on the node where the printing process lives
------------------
     ethr =  3.85E-06,  avg # of iterations =  1.0

     total cpu time spent up to now is       32.2 secs

     total energy              =    -724.17838480 Ry
     estimated scf accuracy    <       0.05847335 Ry

     total magnetization       =     2.00 Bohr mag/cell
     absolute magnetization    =     2.25 Bohr mag/cell

     iteration # 17     ecut=    60.00 Ry     beta= 0.70
     Davidson diagonalization with overlap

---- Real-time Memory Report at c_bands before calling an iterative solver
           169 MiB given to the printing process from OS
             0 MiB allocation reported by mallinfo(arena+hblkhd)
        141780 MiB available memory on the node where the printing process lives
------------------
     ethr =  3.85E-06,  avg # of iterations =  1.5

     total cpu time spent up to now is       32.4 secs

     total energy              =    -724.17915387 Ry
     estimated scf accuracy    <       0.01679844 Ry

     total magnetization       =     2.00 Bohr mag/cell
     absolute magnetization    =     2.25 Bohr mag/cell

     iteration # 18     ecut=    60.00 Ry     beta= 0.70
     Davidson diagonalization with overlap

---- Real-time Memory Report at c_bands before calling an iterative solver
           169 MiB given to the printing process from OS
             0 MiB allocation reported by mallinfo(arena+hblkhd)
        141780 MiB available memory on the node where the printing process lives
------------------
     ethr =  3.85E-06,  avg # of iterations =  1.5

     total cpu time spent up to now is       32.5 secs

     total energy              =    -724.17923617 Ry
     estimated scf accuracy    <       0.02132258 Ry

     total magnetization       =     2.00 Bohr mag/cell
     absolute magnetization    =     2.25 Bohr mag/cell

     iteration # 19     ecut=    60.00 Ry     beta= 0.70
     Davidson diagonalization with overlap

---- Real-time Memory Report at c_bands before calling an iterative solver
           169 MiB given to the printing process from OS
             0 MiB allocation reported by mallinfo(arena+hblkhd)
        141780 MiB available memory on the node where the printing process lives
------------------
     ethr =  3.85E-06,  avg # of iterations =  1.0

     total cpu time spent up to now is       32.7 secs

     total energy              =    -724.17922159 Ry
     estimated scf accuracy    <       0.02255342 Ry

     total magnetization       =     2.00 Bohr mag/cell
     absolute magnetization    =     2.25 Bohr mag/cell

     iteration # 20     ecut=    60.00 Ry     beta= 0.70
     Davidson diagonalization with overlap

---- Real-time Memory Report at c_bands before calling an iterative solver
           169 MiB given to the printing process from OS
             0 MiB allocation reported by mallinfo(arena+hblkhd)
        141780 MiB available memory on the node where the printing process lives
------------------
     ethr =  3.85E-06,  avg # of iterations =  1.0

     total cpu time spent up to now is       32.9 secs

     total energy              =    -724.17923671 Ry
     estimated scf accuracy    <       0.02404423 Ry

     total magnetization       =     2.00 Bohr mag/cell
     absolute magnetization    =     2.25 Bohr mag/cell

     iteration # 21     ecut=    60.00 Ry     beta= 0.70
     Davidson diagonalization with overlap

---- Real-time Memory Report at c_bands before calling an iterative solver
           169 MiB given to the printing process from OS
             0 MiB allocation reported by mallinfo(arena+hblkhd)
        141780 MiB available memory on the node where the printing process lives
------------------
     ethr =  3.85E-06,  avg # of iterations =  2.0

     total cpu time spent up to now is       33.1 secs

     total energy              =    -724.17918513 Ry
     estimated scf accuracy    <       0.02693637 Ry

     total magnetization       =     2.00 Bohr mag/cell
     absolute magnetization    =     2.25 Bohr mag/cell

     iteration # 22     ecut=    60.00 Ry     beta= 0.70
     Davidson diagonalization with overlap

---- Real-time Memory Report at c_bands before calling an iterative solver
           169 MiB given to the printing process from OS
             0 MiB allocation reported by mallinfo(arena+hblkhd)
        141780 MiB available memory on the node where the printing process lives
------------------
     ethr =  3.85E-06,  avg # of iterations =  2.0

     total cpu time spent up to now is       44.7 secs

     total energy              =    -724.17910409 Ry
     estimated scf accuracy    <       0.02992208 Ry

     total magnetization       =     2.00 Bohr mag/cell
     absolute magnetization    =     2.26 Bohr mag/cell

     iteration # 23     ecut=    60.00 Ry     beta= 0.70
     Davidson diagonalization with overlap

---- Real-time Memory Report at c_bands before calling an iterative solver
           169 MiB given to the printing process from OS
             0 MiB allocation reported by mallinfo(arena+hblkhd)
        141781 MiB available memory on the node where the printing process lives
------------------
     ethr =  3.85E-06,  avg # of iterations =  1.0

     total cpu time spent up to now is       44.8 secs

     total energy              =    -724.17915483 Ry
     estimated scf accuracy    <       0.03178119 Ry

     total magnetization       =     2.00 Bohr mag/cell
     absolute magnetization    =     2.26 Bohr mag/cell

     iteration # 24     ecut=    60.00 Ry     beta= 0.70
     Davidson diagonalization with overlap

---- Real-time Memory Report at c_bands before calling an iterative solver
           169 MiB given to the printing process from OS
             0 MiB allocation reported by mallinfo(arena+hblkhd)
        141781 MiB available memory on the node where the printing process lives
------------------
     ethr =  3.85E-06,  avg # of iterations =  1.0

     total cpu time spent up to now is       45.4 secs

     total energy              =    -724.17907927 Ry
     estimated scf accuracy    <       0.03187602 Ry

     total magnetization       =     2.00 Bohr mag/cell
     absolute magnetization    =     2.26 Bohr mag/cell

     iteration # 25     ecut=    60.00 Ry     beta= 0.70
     Davidson diagonalization with overlap

---- Real-time Memory Report at c_bands before calling an iterative solver
           169 MiB given to the printing process from OS
             0 MiB allocation reported by mallinfo(arena+hblkhd)
        141783 MiB available memory on the node where the printing process lives
------------------
     ethr =  3.85E-06,  avg # of iterations =  1.0

     total cpu time spent up to now is       56.4 secs

     total energy              =    -724.17851993 Ry
     estimated scf accuracy    <       0.03485677 Ry

     total magnetization       =     2.00 Bohr mag/cell
     absolute magnetization    =     2.25 Bohr mag/cell

     iteration # 26     ecut=    60.00 Ry     beta= 0.70
     Davidson diagonalization with overlap

---- Real-time Memory Report at c_bands before calling an iterative solver
           169 MiB given to the printing process from OS
             0 MiB allocation reported by mallinfo(arena+hblkhd)
        141782 MiB available memory on the node where the printing process lives
------------------
     ethr =  3.85E-06,  avg # of iterations =  2.5

     total cpu time spent up to now is       56.9 secs

     total energy              =    -724.17916586 Ry
     estimated scf accuracy    <       0.01630821 Ry

     total magnetization       =     2.00 Bohr mag/cell
     absolute magnetization    =     2.25 Bohr mag/cell

     iteration # 27     ecut=    60.00 Ry     beta= 0.70
     Davidson diagonalization with overlap

---- Real-time Memory Report at c_bands before calling an iterative solver
           169 MiB given to the printing process from OS
             0 MiB allocation reported by mallinfo(arena+hblkhd)
        141781 MiB available memory on the node where the printing process lives
------------------
     ethr =  3.85E-06,  avg # of iterations =  1.5

     total cpu time spent up to now is       57.1 secs

     total energy              =    -724.17920289 Ry
     estimated scf accuracy    <       0.02077584 Ry

     total magnetization       =     2.00 Bohr mag/cell
     absolute magnetization    =     2.25 Bohr mag/cell

     iteration # 28     ecut=    60.00 Ry     beta= 0.70
     Davidson diagonalization with overlap

---- Real-time Memory Report at c_bands before calling an iterative solver
           169 MiB given to the printing process from OS
             0 MiB allocation reported by mallinfo(arena+hblkhd)
        141781 MiB available memory on the node where the printing process lives
------------------
     ethr =  3.85E-06,  avg # of iterations =  1.0

     total cpu time spent up to now is       65.1 secs

     total energy              =    -724.17915548 Ry
     estimated scf accuracy    <       0.02115484 Ry

     total magnetization       =     2.00 Bohr mag/cell
     absolute magnetization    =     2.25 Bohr mag/cell

     iteration # 29     ecut=    60.00 Ry     beta= 0.70
     Davidson diagonalization with overlap

---- Real-time Memory Report at c_bands before calling an iterative solver
           169 MiB given to the printing process from OS
             0 MiB allocation reported by mallinfo(arena+hblkhd)
        141782 MiB available memory on the node where the printing process lives
------------------
     ethr =  3.85E-06,  avg # of iterations =  1.0

     total cpu time spent up to now is       65.3 secs

     total energy              =    -724.17908188 Ry
     estimated scf accuracy    <       0.02282266 Ry

     total magnetization       =     2.00 Bohr mag/cell
     absolute magnetization    =     2.25 Bohr mag/cell

     iteration # 30     ecut=    60.00 Ry     beta= 0.70
     Davidson diagonalization with overlap

---- Real-time Memory Report at c_bands before calling an iterative solver
           169 MiB given to the printing process from OS
             0 MiB allocation reported by mallinfo(arena+hblkhd)
        141781 MiB available memory on the node where the printing process lives
------------------
     ethr =  3.85E-06,  avg # of iterations =  1.0

     total cpu time spent up to now is       66.5 secs

     total energy              =    -724.17884509 Ry
     estimated scf accuracy    <       0.02484438 Ry

     total magnetization       =     2.00 Bohr mag/cell
     absolute magnetization    =     2.25 Bohr mag/cell

     iteration # 31     ecut=    60.00 Ry     beta= 0.70
     Davidson diagonalization with overlap

---- Real-time Memory Report at c_bands before calling an iterative solver
           169 MiB given to the printing process from OS
             0 MiB allocation reported by mallinfo(arena+hblkhd)
        141781 MiB available memory on the node where the printing process lives
------------------
     ethr =  3.85E-06,  avg # of iterations =  1.5

     total cpu time spent up to now is       66.8 secs

     total energy              =    -724.17912551 Ry
     estimated scf accuracy    <       0.03906783 Ry

     total magnetization       =     2.00 Bohr mag/cell
     absolute magnetization    =     2.26 Bohr mag/cell

     iteration # 32     ecut=    60.00 Ry     beta= 0.70
     Davidson diagonalization with overlap

---- Real-time Memory Report at c_bands before calling an iterative solver
           169 MiB given to the printing process from OS
             0 MiB allocation reported by mallinfo(arena+hblkhd)
        141781 MiB available memory on the node where the printing process lives
------------------
     ethr =  3.85E-06,  avg # of iterations =  1.0

     total cpu time spent up to now is       66.9 secs

     total energy              =    -724.17912789 Ry
     estimated scf accuracy    <       0.03835499 Ry

     total magnetization       =     2.00 Bohr mag/cell
     absolute magnetization    =     2.26 Bohr mag/cell

     iteration # 33     ecut=    60.00 Ry     beta= 0.70
     Davidson diagonalization with overlap

---- Real-time Memory Report at c_bands before calling an iterative solver
           169 MiB given to the printing process from OS
             0 MiB allocation reported by mallinfo(arena+hblkhd)
        141777 MiB available memory on the node where the printing process lives
------------------
     ethr =  3.85E-06,  avg # of iterations =  1.0

     total cpu time spent up to now is       67.1 secs

     total energy              =    -724.17909402 Ry
     estimated scf accuracy    <       0.03744250 Ry

     total magnetization       =     2.00 Bohr mag/cell
     absolute magnetization    =     2.25 Bohr mag/cell

     iteration # 34     ecut=    60.00 Ry     beta= 0.70
     Davidson diagonalization with overlap

---- Real-time Memory Report at c_bands before calling an iterative solver
           169 MiB given to the printing process from OS
             0 MiB allocation reported by mallinfo(arena+hblkhd)
        141782 MiB available memory on the node where the printing process lives
------------------
     ethr =  3.85E-06,  avg # of iterations =  1.0

     total cpu time spent up to now is       67.6 secs

     total energy              =    -724.17912562 Ry
     estimated scf accuracy    <       0.03844388 Ry

     total magnetization       =     2.00 Bohr mag/cell
     absolute magnetization    =     2.26 Bohr mag/cell

     iteration # 35     ecut=    60.00 Ry     beta= 0.70
     Davidson diagonalization with overlap

---- Real-time Memory Report at c_bands before calling an iterative solver
           169 MiB given to the printing process from OS
             0 MiB allocation reported by mallinfo(arena+hblkhd)
        141781 MiB available memory on the node where the printing process lives
------------------
     ethr =  3.85E-06,  avg # of iterations =  1.0

     total cpu time spent up to now is       67.8 secs

     total energy              =    -724.17913828 Ry
     estimated scf accuracy    <       0.03848369 Ry

     total magnetization       =     2.00 Bohr mag/cell
     absolute magnetization    =     2.26 Bohr mag/cell

     iteration # 36     ecut=    60.00 Ry     beta= 0.70
     Davidson diagonalization with overlap

---- Real-time Memory Report at c_bands before calling an iterative solver
           169 MiB given to the printing process from OS
             0 MiB allocation reported by mallinfo(arena+hblkhd)
        141781 MiB available memory on the node where the printing process lives
------------------
     ethr =  3.85E-06,  avg # of iterations =  1.0

     total cpu time spent up to now is       68.3 secs

     total energy              =    -724.17914867 Ry
     estimated scf accuracy    <       0.03880289 Ry

     total magnetization       =     2.00 Bohr mag/cell
     absolute magnetization    =     2.26 Bohr mag/cell

     iteration # 37     ecut=    60.00 Ry     beta= 0.70
     Davidson diagonalization with overlap

---- Real-time Memory Report at c_bands before calling an iterative solver
           169 MiB given to the printing process from OS
             0 MiB allocation reported by mallinfo(arena+hblkhd)
        141776 MiB available memory on the node where the printing process lives
------------------
     ethr =  3.85E-06,  avg # of iterations =  1.0

     total cpu time spent up to now is       70.3 secs

     total energy              =    -724.17910034 Ry
     estimated scf accuracy    <       0.03896775 Ry

     total magnetization       =     2.00 Bohr mag/cell
     absolute magnetization    =     2.26 Bohr mag/cell

     iteration # 38     ecut=    60.00 Ry     beta= 0.70
     Davidson diagonalization with overlap

---- Real-time Memory Report at c_bands before calling an iterative solver
           169 MiB given to the printing process from OS
             0 MiB allocation reported by mallinfo(arena+hblkhd)
        141782 MiB available memory on the node where the printing process lives
------------------
     ethr =  3.85E-06,  avg # of iterations =  1.0

     total cpu time spent up to now is       70.7 secs

     total energy              =    -724.17898926 Ry
     estimated scf accuracy    <       0.03901368 Ry

     total magnetization       =     2.00 Bohr mag/cell
     absolute magnetization    =     2.26 Bohr mag/cell

     iteration # 39     ecut=    60.00 Ry     beta= 0.70
     Davidson diagonalization with overlap

---- Real-time Memory Report at c_bands before calling an iterative solver
           169 MiB given to the printing process from OS
             0 MiB allocation reported by mallinfo(arena+hblkhd)
        141782 MiB available memory on the node where the printing process lives
------------------
     ethr =  3.85E-06,  avg # of iterations =  1.0

     total cpu time spent up to now is       70.9 secs

     total energy              =    -724.17858822 Ry
     estimated scf accuracy    <       0.03513953 Ry

     total magnetization       =     2.00 Bohr mag/cell
     absolute magnetization    =     2.25 Bohr mag/cell

     iteration # 40     ecut=    60.00 Ry     beta= 0.70
     Davidson diagonalization with overlap

---- Real-time Memory Report at c_bands before calling an iterative solver
           169 MiB given to the printing process from OS
             0 MiB allocation reported by mallinfo(arena+hblkhd)
        141780 MiB available memory on the node where the printing process lives
------------------
     ethr =  3.85E-06,  avg # of iterations =  1.0

     total cpu time spent up to now is       71.3 secs

     total energy              =    -724.17914097 Ry
     estimated scf accuracy    <       0.02764014 Ry

     total magnetization       =     2.00 Bohr mag/cell
     absolute magnetization    =     2.25 Bohr mag/cell

     iteration # 41     ecut=    60.00 Ry     beta= 0.70
     Davidson diagonalization with overlap

---- Real-time Memory Report at c_bands before calling an iterative solver
           169 MiB given to the printing process from OS
             0 MiB allocation reported by mallinfo(arena+hblkhd)
        141781 MiB available memory on the node where the printing process lives
------------------
     ethr =  3.85E-06,  avg # of iterations =  1.0

     total cpu time spent up to now is       72.8 secs

     total energy              =    -724.17906698 Ry
     estimated scf accuracy    <       0.02875350 Ry

     total magnetization       =     2.00 Bohr mag/cell
     absolute magnetization    =     2.25 Bohr mag/cell

     iteration # 42     ecut=    60.00 Ry     beta= 0.70
     Davidson diagonalization with overlap

---- Real-time Memory Report at c_bands before calling an iterative solver
           169 MiB given to the printing process from OS
             0 MiB allocation reported by mallinfo(arena+hblkhd)
        141781 MiB available memory on the node where the printing process lives
------------------
     ethr =  3.85E-06,  avg # of iterations =  1.0

     total cpu time spent up to now is       73.2 secs

     total energy              =    -724.17886785 Ry
     estimated scf accuracy    <       0.02776573 Ry

     total magnetization       =     2.00 Bohr mag/cell
     absolute magnetization    =     2.25 Bohr mag/cell

     iteration # 43     ecut=    60.00 Ry     beta= 0.70
     Davidson diagonalization with overlap

---- Real-time Memory Report at c_bands before calling an iterative solver
           169 MiB given to the printing process from OS
             0 MiB allocation reported by mallinfo(arena+hblkhd)
        141781 MiB available memory on the node where the printing process lives
------------------
     ethr =  3.85E-06,  avg # of iterations =  1.0

     total cpu time spent up to now is       73.5 secs

     total energy              =    -724.17905507 Ry
     estimated scf accuracy    <       0.03660351 Ry

     total magnetization       =     2.00 Bohr mag/cell
     absolute magnetization    =     2.25 Bohr mag/cell

     iteration # 44     ecut=    60.00 Ry     beta= 0.70
     Davidson diagonalization with overlap

---- Real-time Memory Report at c_bands before calling an iterative solver
           169 MiB given to the printing process from OS
             0 MiB allocation reported by mallinfo(arena+hblkhd)
        141777 MiB available memory on the node where the printing process lives
------------------
     ethr =  3.85E-06,  avg # of iterations =  1.0

     total cpu time spent up to now is       75.8 secs

     total energy              =    -724.17906085 Ry
     estimated scf accuracy    <       0.03414293 Ry

     total magnetization       =     2.00 Bohr mag/cell
     absolute magnetization    =     2.25 Bohr mag/cell

     iteration # 45     ecut=    60.00 Ry     beta= 0.70
     Davidson diagonalization with overlap

---- Real-time Memory Report at c_bands before calling an iterative solver
           169 MiB given to the printing process from OS
             0 MiB allocation reported by mallinfo(arena+hblkhd)
        141782 MiB available memory on the node where the printing process lives
------------------
     ethr =  3.85E-06,  avg # of iterations =  1.0

     total cpu time spent up to now is       76.1 secs

     total energy              =    -724.17902540 Ry
     estimated scf accuracy    <       0.03442967 Ry

     total magnetization       =     2.00 Bohr mag/cell
     absolute magnetization    =     2.25 Bohr mag/cell

     iteration # 46     ecut=    60.00 Ry     beta= 0.70
     Davidson diagonalization with overlap

---- Real-time Memory Report at c_bands before calling an iterative solver
           169 MiB given to the printing process from OS
             0 MiB allocation reported by mallinfo(arena+hblkhd)
        141781 MiB available memory on the node where the printing process lives
------------------
     ethr =  3.85E-06,  avg # of iterations =  1.0

     total cpu time spent up to now is       76.2 secs

     total energy              =    -724.17906297 Ry
     estimated scf accuracy    <       0.03290793 Ry

     total magnetization       =     2.00 Bohr mag/cell
     absolute magnetization    =     2.25 Bohr mag/cell

     iteration # 47     ecut=    60.00 Ry     beta= 0.70
     Davidson diagonalization with overlap

---- Real-time Memory Report at c_bands before calling an iterative solver
           169 MiB given to the printing process from OS
             0 MiB allocation reported by mallinfo(arena+hblkhd)
        141781 MiB available memory on the node where the printing process lives
------------------
     ethr =  3.85E-06,  avg # of iterations =  1.0

     total cpu time spent up to now is       76.5 secs

     total energy              =    -724.17906562 Ry
     estimated scf accuracy    <       0.03276897 Ry

     total magnetization       =     2.00 Bohr mag/cell
     absolute magnetization    =     2.25 Bohr mag/cell

     iteration # 48     ecut=    60.00 Ry     beta= 0.70
     Davidson diagonalization with overlap

---- Real-time Memory Report at c_bands before calling an iterative solver
           169 MiB given to the printing process from OS
             0 MiB allocation reported by mallinfo(arena+hblkhd)
        141781 MiB available memory on the node where the printing process lives
------------------
     ethr =  3.85E-06,  avg # of iterations =  1.0

     total cpu time spent up to now is       76.6 secs

     total energy              =    -724.17912219 Ry
     estimated scf accuracy    <       0.03257901 Ry

     total magnetization       =     2.00 Bohr mag/cell
     absolute magnetization    =     2.25 Bohr mag/cell

     iteration # 49     ecut=    60.00 Ry     beta= 0.70
     Davidson diagonalization with overlap

---- Real-time Memory Report at c_bands before calling an iterative solver
           169 MiB given to the printing process from OS
             0 MiB allocation reported by mallinfo(arena+hblkhd)
        141781 MiB available memory on the node where the printing process lives
------------------
     ethr =  3.85E-06,  avg # of iterations =  1.0

     total cpu time spent up to now is       76.8 secs

     total energy              =    -724.17900993 Ry
     estimated scf accuracy    <       0.03549363 Ry

     total magnetization       =     2.00 Bohr mag/cell
     absolute magnetization    =     2.25 Bohr mag/cell

     iteration # 50     ecut=    60.00 Ry     beta= 0.70
     Davidson diagonalization with overlap

---- Real-time Memory Report at c_bands before calling an iterative solver
           169 MiB given to the printing process from OS
             0 MiB allocation reported by mallinfo(arena+hblkhd)
        141781 MiB available memory on the node where the printing process lives
------------------
     ethr =  3.85E-06,  avg # of iterations =  1.0

     total cpu time spent up to now is       77.0 secs

     total energy              =    -724.17900109 Ry
     estimated scf accuracy    <       0.02895098 Ry

     total magnetization       =     2.00 Bohr mag/cell
     absolute magnetization    =     2.26 Bohr mag/cell

     iteration # 51     ecut=    60.00 Ry     beta= 0.70
     Davidson diagonalization with overlap

---- Real-time Memory Report at c_bands before calling an iterative solver
           169 MiB given to the printing process from OS
             0 MiB allocation reported by mallinfo(arena+hblkhd)
        141784 MiB available memory on the node where the printing process lives
------------------
     ethr =  3.85E-06,  avg # of iterations =  1.0

     total cpu time spent up to now is       77.2 secs

     total energy              =    -724.17902798 Ry
     estimated scf accuracy    <       0.02835428 Ry

     total magnetization       =     2.00 Bohr mag/cell
     absolute magnetization    =     2.25 Bohr mag/cell

     iteration # 52     ecut=    60.00 Ry     beta= 0.70
     Davidson diagonalization with overlap

---- Real-time Memory Report at c_bands before calling an iterative solver
           169 MiB given to the printing process from OS
             0 MiB allocation reported by mallinfo(arena+hblkhd)
        141781 MiB available memory on the node where the printing process lives
------------------
     ethr =  3.85E-06,  avg # of iterations =  1.0

     total cpu time spent up to now is       77.3 secs

     total energy              =    -724.17906221 Ry
     estimated scf accuracy    <       0.03260560 Ry

     total magnetization       =     2.00 Bohr mag/cell
     absolute magnetization    =     2.25 Bohr mag/cell

     iteration # 53     ecut=    60.00 Ry     beta= 0.70
     Davidson diagonalization with overlap

---- Real-time Memory Report at c_bands before calling an iterative solver
           169 MiB given to the printing process from OS
             0 MiB allocation reported by mallinfo(arena+hblkhd)
        141781 MiB available memory on the node where the printing process lives
------------------
     ethr =  3.85E-06,  avg # of iterations =  1.0

     total cpu time spent up to now is       77.6 secs

     total energy              =    -724.17907313 Ry
     estimated scf accuracy    <       0.03145228 Ry

     total magnetization       =     2.00 Bohr mag/cell
     absolute magnetization    =     2.26 Bohr mag/cell

     iteration # 54     ecut=    60.00 Ry     beta= 0.70
     Davidson diagonalization with overlap

---- Real-time Memory Report at c_bands before calling an iterative solver
           169 MiB given to the printing process from OS
             0 MiB allocation reported by mallinfo(arena+hblkhd)
        141774 MiB available memory on the node where the printing process lives
------------------
     ethr =  3.85E-06,  avg # of iterations =  1.0

     total cpu time spent up to now is       79.8 secs

     total energy              =    -724.17907797 Ry
     estimated scf accuracy    <       0.03149972 Ry

     total magnetization       =     2.00 Bohr mag/cell
     absolute magnetization    =     2.26 Bohr mag/cell

     iteration # 55     ecut=    60.00 Ry     beta= 0.70
     Davidson diagonalization with overlap

---- Real-time Memory Report at c_bands before calling an iterative solver
           169 MiB given to the printing process from OS
             0 MiB allocation reported by mallinfo(arena+hblkhd)
        141782 MiB available memory on the node where the printing process lives
------------------
     ethr =  3.85E-06,  avg # of iterations =  1.0

     total cpu time spent up to now is       90.4 secs

     total energy              =    -724.17905447 Ry
     estimated scf accuracy    <       0.03175178 Ry

     total magnetization       =     2.00 Bohr mag/cell
     absolute magnetization    =     2.26 Bohr mag/cell

     iteration # 56     ecut=    60.00 Ry     beta= 0.70
     Davidson diagonalization with overlap

---- Real-time Memory Report at c_bands before calling an iterative solver
           169 MiB given to the printing process from OS
             0 MiB allocation reported by mallinfo(arena+hblkhd)
        141782 MiB available memory on the node where the printing process lives
------------------
     ethr =  3.85E-06,  avg # of iterations =  1.0

     total cpu time spent up to now is       90.5 secs

     total energy              =    -724.17904286 Ry
     estimated scf accuracy    <       0.03069036 Ry

     total magnetization       =     2.00 Bohr mag/cell
     absolute magnetization    =     2.25 Bohr mag/cell

     iteration # 57     ecut=    60.00 Ry     beta= 0.70
     Davidson diagonalization with overlap

---- Real-time Memory Report at c_bands before calling an iterative solver
           169 MiB given to the printing process from OS
             0 MiB allocation reported by mallinfo(arena+hblkhd)
        141782 MiB available memory on the node where the printing process lives
------------------
     ethr =  3.85E-06,  avg # of iterations =  1.0

     total cpu time spent up to now is       90.7 secs

     total energy              =    -724.17898714 Ry
     estimated scf accuracy    <       0.03057996 Ry

     total magnetization       =     2.00 Bohr mag/cell
     absolute magnetization    =     2.25 Bohr mag/cell

     iteration # 58     ecut=    60.00 Ry     beta= 0.70
     Davidson diagonalization with overlap

---- Real-time Memory Report at c_bands before calling an iterative solver
           169 MiB given to the printing process from OS
             0 MiB allocation reported by mallinfo(arena+hblkhd)
        141766 MiB available memory on the node where the printing process lives
------------------
     ethr =  3.85E-06,  avg # of iterations =  1.0

     total cpu time spent up to now is       98.5 secs

     total energy              =    -724.17898081 Ry
     estimated scf accuracy    <       0.03243297 Ry

     total magnetization       =     2.00 Bohr mag/cell
     absolute magnetization    =     2.25 Bohr mag/cell

     iteration # 59     ecut=    60.00 Ry     beta= 0.70
     Davidson diagonalization with overlap

---- Real-time Memory Report at c_bands before calling an iterative solver
           169 MiB given to the printing process from OS
             0 MiB allocation reported by mallinfo(arena+hblkhd)
        141773 MiB available memory on the node where the printing process lives
------------------
     ethr =  3.85E-06,  avg # of iterations =  1.0

     total cpu time spent up to now is       98.7 secs

     total energy              =    -724.17902315 Ry
     estimated scf accuracy    <       0.03111725 Ry

     total magnetization       =     2.00 Bohr mag/cell
     absolute magnetization    =     2.25 Bohr mag/cell

     iteration # 60     ecut=    60.00 Ry     beta= 0.70
     Davidson diagonalization with overlap

---- Real-time Memory Report at c_bands before calling an iterative solver
           169 MiB given to the printing process from OS
             0 MiB allocation reported by mallinfo(arena+hblkhd)
        141773 MiB available memory on the node where the printing process lives
------------------
     ethr =  3.85E-06,  avg # of iterations =  1.0

     total cpu time spent up to now is      100.9 secs

     total energy              =    -724.17899567 Ry
     estimated scf accuracy    <       0.03118580 Ry

     total magnetization       =     2.00 Bohr mag/cell
     absolute magnetization    =     2.25 Bohr mag/cell

     iteration # 61     ecut=    60.00 Ry     beta= 0.70
     Davidson diagonalization with overlap

---- Real-time Memory Report at c_bands before calling an iterative solver
           169 MiB given to the printing process from OS
             0 MiB allocation reported by mallinfo(arena+hblkhd)
        141781 MiB available memory on the node where the printing process lives
------------------
     ethr =  3.85E-06,  avg # of iterations =  1.0

     total cpu time spent up to now is      101.0 secs

     total energy              =    -724.17901619 Ry
     estimated scf accuracy    <       0.03268695 Ry

     total magnetization       =     2.00 Bohr mag/cell
     absolute magnetization    =     2.26 Bohr mag/cell

     iteration # 62     ecut=    60.00 Ry     beta= 0.70
     Davidson diagonalization with overlap

---- Real-time Memory Report at c_bands before calling an iterative solver
           169 MiB given to the printing process from OS
             0 MiB allocation reported by mallinfo(arena+hblkhd)
        141778 MiB available memory on the node where the printing process lives
------------------
     ethr =  3.85E-06,  avg # of iterations =  1.0

     total cpu time spent up to now is      101.2 secs

     total energy              =    -724.17901610 Ry
     estimated scf accuracy    <       0.03247841 Ry

     total magnetization       =     2.00 Bohr mag/cell
     absolute magnetization    =     2.26 Bohr mag/cell

     iteration # 63     ecut=    60.00 Ry     beta= 0.70
     Davidson diagonalization with overlap

---- Real-time Memory Report at c_bands before calling an iterative solver
           169 MiB given to the printing process from OS
             0 MiB allocation reported by mallinfo(arena+hblkhd)
        141781 MiB available memory on the node where the printing process lives
------------------
     ethr =  3.85E-06,  avg # of iterations =  1.0

     total cpu time spent up to now is      102.1 secs

     total energy              =    -724.17901815 Ry
     estimated scf accuracy    <       0.03247727 Ry

     total magnetization       =     2.00 Bohr mag/cell
     absolute magnetization    =     2.26 Bohr mag/cell

     iteration # 64     ecut=    60.00 Ry     beta= 0.70
     Davidson diagonalization with overlap

---- Real-time Memory Report at c_bands before calling an iterative solver
           169 MiB given to the printing process from OS
             0 MiB allocation reported by mallinfo(arena+hblkhd)
        141772 MiB available memory on the node where the printing process lives
------------------
     ethr =  3.85E-06,  avg # of iterations =  1.0

     total cpu time spent up to now is      102.6 secs

     total energy              =    -724.17900659 Ry
     estimated scf accuracy    <       0.03256150 Ry

     total magnetization       =     2.00 Bohr mag/cell
     absolute magnetization    =     2.26 Bohr mag/cell

     iteration # 65     ecut=    60.00 Ry     beta= 0.70
     Davidson diagonalization with overlap

---- Real-time Memory Report at c_bands before calling an iterative solver
           169 MiB given to the printing process from OS
             0 MiB allocation reported by mallinfo(arena+hblkhd)
        141780 MiB available memory on the node where the printing process lives
------------------
     ethr =  3.85E-06,  avg # of iterations =  1.0

     total cpu time spent up to now is      103.9 secs

     total energy              =    -724.17899357 Ry
     estimated scf accuracy    <       0.03090382 Ry

     total magnetization       =     2.00 Bohr mag/cell
     absolute magnetization    =     2.25 Bohr mag/cell

     iteration # 66     ecut=    60.00 Ry     beta= 0.70
     Davidson diagonalization with overlap

---- Real-time Memory Report at c_bands before calling an iterative solver
           169 MiB given to the printing process from OS
             0 MiB allocation reported by mallinfo(arena+hblkhd)
        141780 MiB available memory on the node where the printing process lives
------------------
     ethr =  3.85E-06,  avg # of iterations =  1.0

     total cpu time spent up to now is      105.9 secs

     total energy              =    -724.17901574 Ry
     estimated scf accuracy    <       0.03240641 Ry

     total magnetization       =     2.00 Bohr mag/cell
     absolute magnetization    =     2.25 Bohr mag/cell

     iteration # 67     ecut=    60.00 Ry     beta= 0.70
     Davidson diagonalization with overlap

---- Real-time Memory Report at c_bands before calling an iterative solver
           169 MiB given to the printing process from OS
             0 MiB allocation reported by mallinfo(arena+hblkhd)
        141781 MiB available memory on the node where the printing process lives
------------------
     ethr =  3.85E-06,  avg # of iterations =  1.0

     total cpu time spent up to now is      115.9 secs

     total energy              =    -724.17901601 Ry
     estimated scf accuracy    <       0.03230902 Ry

     total magnetization       =     2.00 Bohr mag/cell
     absolute magnetization    =     2.25 Bohr mag/cell

     iteration # 68     ecut=    60.00 Ry     beta= 0.70
     Davidson diagonalization with overlap

---- Real-time Memory Report at c_bands before calling an iterative solver
           169 MiB given to the printing process from OS
             0 MiB allocation reported by mallinfo(arena+hblkhd)
        141779 MiB available memory on the node where the printing process lives
------------------
     ethr =  3.85E-06,  avg # of iterations =  1.0

     total cpu time spent up to now is      121.9 secs

     total energy              =    -724.17901441 Ry
     estimated scf accuracy    <       0.03225685 Ry

     total magnetization       =     2.00 Bohr mag/cell
     absolute magnetization    =     2.26 Bohr mag/cell

     iteration # 69     ecut=    60.00 Ry     beta= 0.70
     Davidson diagonalization with overlap

---- Real-time Memory Report at c_bands before calling an iterative solver
           169 MiB given to the printing process from OS
             0 MiB allocation reported by mallinfo(arena+hblkhd)
        141776 MiB available memory on the node where the printing process lives
------------------
     ethr =  3.85E-06,  avg # of iterations =  1.0

     total cpu time spent up to now is      126.8 secs

     total energy              =    -724.17901152 Ry
     estimated scf accuracy    <       0.03222616 Ry

     total magnetization       =     2.00 Bohr mag/cell
     absolute magnetization    =     2.26 Bohr mag/cell

     iteration # 70     ecut=    60.00 Ry     beta= 0.70
     Davidson diagonalization with overlap

---- Real-time Memory Report at c_bands before calling an iterative solver
           169 MiB given to the printing process from OS
             0 MiB allocation reported by mallinfo(arena+hblkhd)
        141780 MiB available memory on the node where the printing process lives
------------------
     ethr =  3.85E-06,  avg # of iterations =  1.0

     total cpu time spent up to now is      127.1 secs

     total energy              =    -724.17901546 Ry
     estimated scf accuracy    <       0.03221327 Ry

     total magnetization       =     2.00 Bohr mag/cell
     absolute magnetization    =     2.26 Bohr mag/cell

     iteration # 71     ecut=    60.00 Ry     beta= 0.70
     Davidson diagonalization with overlap

---- Real-time Memory Report at c_bands before calling an iterative solver
           169 MiB given to the printing process from OS
             0 MiB allocation reported by mallinfo(arena+hblkhd)
        141782 MiB available memory on the node where the printing process lives
------------------
     ethr =  3.85E-06,  avg # of iterations =  1.0

     total cpu time spent up to now is      127.3 secs

     total energy              =    -724.17901599 Ry
     estimated scf accuracy    <       0.03230849 Ry

     total magnetization       =     2.00 Bohr mag/cell
     absolute magnetization    =     2.26 Bohr mag/cell

     iteration # 72     ecut=    60.00 Ry     beta= 0.70
     Davidson diagonalization with overlap

---- Real-time Memory Report at c_bands before calling an iterative solver
           169 MiB given to the printing process from OS
             0 MiB allocation reported by mallinfo(arena+hblkhd)
        141782 MiB available memory on the node where the printing process lives
------------------
     ethr =  3.85E-06,  avg # of iterations =  1.0

     total cpu time spent up to now is      127.5 secs

     total energy              =    -724.17901531 Ry
     estimated scf accuracy    <       0.03231340 Ry

     total magnetization       =     2.00 Bohr mag/cell
     absolute magnetization    =     2.26 Bohr mag/cell

     iteration # 73     ecut=    60.00 Ry     beta= 0.70
     Davidson diagonalization with overlap

---- Real-time Memory Report at c_bands before calling an iterative solver
           169 MiB given to the printing process from OS
             0 MiB allocation reported by mallinfo(arena+hblkhd)
        141782 MiB available memory on the node where the printing process lives
------------------
     ethr =  3.85E-06,  avg # of iterations =  1.0

     total cpu time spent up to now is      127.7 secs

     total energy              =    -724.17901442 Ry
     estimated scf accuracy    <       0.03231192 Ry

     total magnetization       =     2.00 Bohr mag/cell
     absolute magnetization    =     2.26 Bohr mag/cell

     iteration # 74     ecut=    60.00 Ry     beta= 0.70
     Davidson diagonalization with overlap

---- Real-time Memory Report at c_bands before calling an iterative solver
           169 MiB given to the printing process from OS
             0 MiB allocation reported by mallinfo(arena+hblkhd)
        141781 MiB available memory on the node where the printing process lives
------------------
     ethr =  3.85E-06,  avg # of iterations =  1.0

     total cpu time spent up to now is      128.3 secs

     total energy              =    -724.17900549 Ry
     estimated scf accuracy    <       0.03233257 Ry

     total magnetization       =     2.00 Bohr mag/cell
     absolute magnetization    =     2.26 Bohr mag/cell

     iteration # 75     ecut=    60.00 Ry     beta= 0.70
     Davidson diagonalization with overlap

---- Real-time Memory Report at c_bands before calling an iterative solver
           169 MiB given to the printing process from OS
             0 MiB allocation reported by mallinfo(arena+hblkhd)
        141773 MiB available memory on the node where the printing process lives
------------------
     ethr =  3.85E-06,  avg # of iterations =  1.0

     total cpu time spent up to now is      139.2 secs

     total energy              =    -724.17895167 Ry
     estimated scf accuracy    <       0.03466179 Ry

     total magnetization       =     2.00 Bohr mag/cell
     absolute magnetization    =     2.25 Bohr mag/cell

     iteration # 76     ecut=    60.00 Ry     beta= 0.70
     Davidson diagonalization with overlap

---- Real-time Memory Report at c_bands before calling an iterative solver
           169 MiB given to the printing process from OS
             0 MiB allocation reported by mallinfo(arena+hblkhd)
        141781 MiB available memory on the node where the printing process lives
------------------
     ethr =  3.85E-06,  avg # of iterations =  1.0

     total cpu time spent up to now is      139.9 secs

     total energy              =    -724.17903444 Ry
     estimated scf accuracy    <       0.03116076 Ry

     total magnetization       =     2.00 Bohr mag/cell
     absolute magnetization    =     2.26 Bohr mag/cell

     iteration # 77     ecut=    60.00 Ry     beta= 0.70
     Davidson diagonalization with overlap

---- Real-time Memory Report at c_bands before calling an iterative solver
           169 MiB given to the printing process from OS
             0 MiB allocation reported by mallinfo(arena+hblkhd)
        141780 MiB available memory on the node where the printing process lives
------------------
     ethr =  3.85E-06,  avg # of iterations =  1.0

     total cpu time spent up to now is      147.5 secs

     total energy              =    -724.17903416 Ry
     estimated scf accuracy    <       0.03263078 Ry

     total magnetization       =     2.00 Bohr mag/cell
     absolute magnetization    =     2.25 Bohr mag/cell

     iteration # 78     ecut=    60.00 Ry     beta= 0.70
     Davidson diagonalization with overlap

---- Real-time Memory Report at c_bands before calling an iterative solver
           169 MiB given to the printing process from OS
             0 MiB allocation reported by mallinfo(arena+hblkhd)
        141781 MiB available memory on the node where the printing process lives
------------------
     ethr =  3.85E-06,  avg # of iterations =  1.0

     total cpu time spent up to now is      147.8 secs

     total energy              =    -724.17902239 Ry
     estimated scf accuracy    <       0.03170706 Ry

     total magnetization       =     2.00 Bohr mag/cell
     absolute magnetization    =     2.26 Bohr mag/cell

     iteration # 79     ecut=    60.00 Ry     beta= 0.70
     Davidson diagonalization with overlap

---- Real-time Memory Report at c_bands before calling an iterative solver
           169 MiB given to the printing process from OS
             0 MiB allocation reported by mallinfo(arena+hblkhd)
        141781 MiB available memory on the node where the printing process lives
------------------
     ethr =  3.85E-06,  avg # of iterations =  1.0

     total cpu time spent up to now is      148.0 secs

     total energy              =    -724.17901305 Ry
     estimated scf accuracy    <       0.03211432 Ry

     total magnetization       =     2.00 Bohr mag/cell
     absolute magnetization    =     2.25 Bohr mag/cell

     iteration # 80     ecut=    60.00 Ry     beta= 0.70
     Davidson diagonalization with overlap

---- Real-time Memory Report at c_bands before calling an iterative solver
           169 MiB given to the printing process from OS
             0 MiB allocation reported by mallinfo(arena+hblkhd)
        141781 MiB available memory on the node where the printing process lives
------------------
     ethr =  3.85E-06,  avg # of iterations =  1.0

     total cpu time spent up to now is      148.3 secs

     total energy              =    -724.17901495 Ry
     estimated scf accuracy    <       0.03267646 Ry

     total magnetization       =     2.00 Bohr mag/cell
     absolute magnetization    =     2.25 Bohr mag/cell

     iteration # 81     ecut=    60.00 Ry     beta= 0.70
     Davidson diagonalization with overlap

[...]
     Davidson diagonalization with overlap

---- Real-time Memory Report at c_bands before calling an iterative solver
           174 MiB given to the printing process from OS
             0 MiB allocation reported by mallinfo(arena+hblkhd)
        141680 MiB available memory on the node where the printing process lives
------------------
     ethr =  1.25E-05,  avg # of iterations =  1.0

     total cpu time spent up to now is     1105.4 secs

     total energy              =    -724.18912329 Ry
     estimated scf accuracy    <       0.03496621 Ry

     total magnetization       =     2.00 Bohr mag/cell
     absolute magnetization    =     2.26 Bohr mag/cell

     iteration # 37     ecut=    60.00 Ry     beta= 0.70
     Davidson diagonalization with overlap

---- Real-time Memory Report at c_bands before calling an iterative solver
           174 MiB given to the printing process from OS
             0 MiB allocation reported by mallinfo(arena+hblkhd)
        141682 MiB available memory on the node where the printing process lives
------------------
     ethr =  1.25E-05,  avg # of iterations =  1.0

     total cpu time spent up to now is     1105.7 secs

     total energy              =    -724.18919667 Ry
     estimated scf accuracy    <       0.03461044 Ry

     total magnetization       =     2.00 Bohr mag/cell
     absolute magnetization    =     2.26 Bohr mag/cell

     iteration # 38     ecut=    60.00 Ry     beta= 0.70
     Davidson diagonalization with overlap

---- Real-time Memory Report at c_bands before calling an iterative solver
           174 MiB given to the printing process from OS
             0 MiB allocation reported by mallinfo(arena+hblkhd)
        141682 MiB available memory on the node where the printing process lives
------------------
     ethr =  1.25E-05,  avg # of iterations =  1.0

     total cpu time spent up to now is     1105.9 secs

     total energy              =    -724.18922770 Ry
     estimated scf accuracy    <       0.03631464 Ry

     total magnetization       =     2.00 Bohr mag/cell
     absolute magnetization    =     2.26 Bohr mag/cell

     iteration # 39     ecut=    60.00 Ry     beta= 0.70
     Davidson diagonalization with overlap

---- Real-time Memory Report at c_bands before calling an iterative solver
           174 MiB given to the printing process from OS
             0 MiB allocation reported by mallinfo(arena+hblkhd)
        141677 MiB available memory on the node where the printing process lives
------------------
     ethr =  1.25E-05,  avg # of iterations =  1.0

     total cpu time spent up to now is     1108.5 secs

     total energy              =    -724.18927410 Ry
     estimated scf accuracy    <       0.03670574 Ry

     total magnetization       =     2.00 Bohr mag/cell
     absolute magnetization    =     2.26 Bohr mag/cell

     iteration # 40     ecut=    60.00 Ry     beta= 0.70
     Davidson diagonalization with overlap

---- Real-time Memory Report at c_bands before calling an iterative solver
           174 MiB given to the printing process from OS
             0 MiB allocation reported by mallinfo(arena+hblkhd)
        141682 MiB available memory on the node where the printing process lives
------------------
     ethr =  1.25E-05,  avg # of iterations =  1.0

     total cpu time spent up to now is     1108.8 secs

     total energy              =    -724.18908494 Ry
     estimated scf accuracy    <       0.03748898 Ry

     total magnetization       =     2.00 Bohr mag/cell
     absolute magnetization    =     2.26 Bohr mag/cell

     iteration # 41     ecut=    60.00 Ry     beta= 0.70
     Davidson diagonalization with overlap

---- Real-time Memory Report at c_bands before calling an iterative solver
           174 MiB given to the printing process from OS
             0 MiB allocation reported by mallinfo(arena+hblkhd)
        141682 MiB available memory on the node where the printing process lives
------------------
     ethr =  1.25E-05,  avg # of iterations =  1.0

     total cpu time spent up to now is     1108.9 secs

     total energy              =    -724.18908959 Ry
     estimated scf accuracy    <       0.03137103 Ry

     total magnetization       =     2.00 Bohr mag/cell
     absolute magnetization    =     2.26 Bohr mag/cell

     iteration # 42     ecut=    60.00 Ry     beta= 0.70
     Davidson diagonalization with overlap

---- Real-time Memory Report at c_bands before calling an iterative solver
           174 MiB given to the printing process from OS
             0 MiB allocation reported by mallinfo(arena+hblkhd)
        141682 MiB available memory on the node where the printing process lives
------------------
     ethr =  1.24E-05,  avg # of iterations =  1.0

     total cpu time spent up to now is     1109.2 secs

     total energy              =    -724.18901050 Ry
     estimated scf accuracy    <       0.02996837 Ry

     total magnetization       =     2.00 Bohr mag/cell
     absolute magnetization    =     2.26 Bohr mag/cell

     iteration # 43     ecut=    60.00 Ry     beta= 0.70
     Davidson diagonalization with overlap

---- Real-time Memory Report at c_bands before calling an iterative solver
           174 MiB given to the printing process from OS
             0 MiB allocation reported by mallinfo(arena+hblkhd)
        141682 MiB available memory on the node where the printing process lives
------------------
     ethr =  1.18E-05,  avg # of iterations =  1.0

     total cpu time spent up to now is     1109.3 secs

     total energy              =    -724.18909230 Ry
     estimated scf accuracy    <       0.03199271 Ry

     total magnetization       =     2.00 Bohr mag/cell
     absolute magnetization    =     2.26 Bohr mag/cell

     iteration # 44     ecut=    60.00 Ry     beta= 0.70
     Davidson diagonalization with overlap

---- Real-time Memory Report at c_bands before calling an iterative solver
           174 MiB given to the printing process from OS
             0 MiB allocation reported by mallinfo(arena+hblkhd)
        141682 MiB available memory on the node where the printing process lives
------------------
     ethr =  1.18E-05,  avg # of iterations =  1.0

     total cpu time spent up to now is     1109.9 secs

     total energy              =    -724.18909190 Ry
     estimated scf accuracy    <       0.03326791 Ry

     total magnetization       =     2.00 Bohr mag/cell
     absolute magnetization    =     2.26 Bohr mag/cell

     iteration # 45     ecut=    60.00 Ry     beta= 0.70
     Davidson diagonalization with overlap

---- Real-time Memory Report at c_bands before calling an iterative solver
           174 MiB given to the printing process from OS
             0 MiB allocation reported by mallinfo(arena+hblkhd)
        141680 MiB available memory on the node where the printing process lives
------------------
     ethr =  1.18E-05,  avg # of iterations =  1.0

     total cpu time spent up to now is     1114.5 secs

     total energy              =    -724.18906695 Ry
     estimated scf accuracy    <       0.03356348 Ry

     total magnetization       =     2.00 Bohr mag/cell
     absolute magnetization    =     2.26 Bohr mag/cell

     iteration # 46     ecut=    60.00 Ry     beta= 0.70
     Davidson diagonalization with overlap

---- Real-time Memory Report at c_bands before calling an iterative solver
           174 MiB given to the printing process from OS
             0 MiB allocation reported by mallinfo(arena+hblkhd)
        141683 MiB available memory on the node where the printing process lives
------------------
     ethr =  1.18E-05,  avg # of iterations =  1.0

     total cpu time spent up to now is     1115.0 secs

     total energy              =    -724.18906170 Ry
     estimated scf accuracy    <       0.03348027 Ry

     total magnetization       =     2.00 Bohr mag/cell
     absolute magnetization    =     2.26 Bohr mag/cell

     iteration # 47     ecut=    60.00 Ry     beta= 0.70
     Davidson diagonalization with overlap

---- Real-time Memory Report at c_bands before calling an iterative solver
           174 MiB given to the printing process from OS
             0 MiB allocation reported by mallinfo(arena+hblkhd)
        141681 MiB available memory on the node where the printing process lives
------------------
     ethr =  1.18E-05,  avg # of iterations =  1.0

     total cpu time spent up to now is     1125.6 secs

     total energy              =    -724.18904629 Ry
     estimated scf accuracy    <       0.03204629 Ry

     total magnetization       =     2.00 Bohr mag/cell
     absolute magnetization    =     2.26 Bohr mag/cell

     iteration # 48     ecut=    60.00 Ry     beta= 0.70
     Davidson diagonalization with overlap

---- Real-time Memory Report at c_bands before calling an iterative solver
           174 MiB given to the printing process from OS
             0 MiB allocation reported by mallinfo(arena+hblkhd)
        141687 MiB available memory on the node where the printing process lives
------------------
     ethr =  1.18E-05,  avg # of iterations =  1.0

     total cpu time spent up to now is     1133.3 secs

     total energy              =    -724.18903932 Ry
     estimated scf accuracy    <       0.03220762 Ry

     total magnetization       =     2.00 Bohr mag/cell
     absolute magnetization    =     2.27 Bohr mag/cell

     iteration # 49     ecut=    60.00 Ry     beta= 0.70
     Davidson diagonalization with overlap

---- Real-time Memory Report at c_bands before calling an iterative solver
           174 MiB given to the printing process from OS
             0 MiB allocation reported by mallinfo(arena+hblkhd)
        141682 MiB available memory on the node where the printing process lives
------------------
     ethr =  1.18E-05,  avg # of iterations =  1.0

     total cpu time spent up to now is     1139.2 secs

     total energy              =    -724.18905466 Ry
     estimated scf accuracy    <       0.03189014 Ry

     total magnetization       =     2.00 Bohr mag/cell
     absolute magnetization    =     2.26 Bohr mag/cell

     iteration # 50     ecut=    60.00 Ry     beta= 0.70
     Davidson diagonalization with overlap

---- Real-time Memory Report at c_bands before calling an iterative solver
           174 MiB given to the printing process from OS
             0 MiB allocation reported by mallinfo(arena+hblkhd)
        141686 MiB available memory on the node where the printing process lives
------------------
     ethr =  1.18E-05,  avg # of iterations =  1.0

     total cpu time spent up to now is     1139.7 secs

     total energy              =    -724.18904082 Ry
     estimated scf accuracy    <       0.03289070 Ry

     total magnetization       =     2.00 Bohr mag/cell
     absolute magnetization    =     2.26 Bohr mag/cell

     iteration # 51     ecut=    60.00 Ry     beta= 0.70
     Davidson diagonalization with overlap

---- Real-time Memory Report at c_bands before calling an iterative solver
           174 MiB given to the printing process from OS
             0 MiB allocation reported by mallinfo(arena+hblkhd)
        141685 MiB available memory on the node where the printing process lives
------------------
     ethr =  1.18E-05,  avg # of iterations =  1.0

     total cpu time spent up to now is     1151.2 secs

     total energy              =    -724.18906500 Ry
     estimated scf accuracy    <       0.03047933 Ry

     total magnetization       =     2.00 Bohr mag/cell
     absolute magnetization    =     2.26 Bohr mag/cell

     iteration # 52     ecut=    60.00 Ry     beta= 0.70
     Davidson diagonalization with overlap

---- Real-time Memory Report at c_bands before calling an iterative solver
           174 MiB given to the printing process from OS
             0 MiB allocation reported by mallinfo(arena+hblkhd)
        141687 MiB available memory on the node where the printing process lives
------------------
     ethr =  1.18E-05,  avg # of iterations =  1.0

     total cpu time spent up to now is     1153.1 secs

     total energy              =    -724.18905711 Ry
     estimated scf accuracy    <       0.03064861 Ry

     total magnetization       =     2.00 Bohr mag/cell
     absolute magnetization    =     2.26 Bohr mag/cell

     iteration # 53     ecut=    60.00 Ry     beta= 0.70
     Davidson diagonalization with overlap

---- Real-time Memory Report at c_bands before calling an iterative solver
           174 MiB given to the printing process from OS
             0 MiB allocation reported by mallinfo(arena+hblkhd)
        141687 MiB available memory on the node where the printing process lives
------------------
     ethr =  1.18E-05,  avg # of iterations =  1.0

     total cpu time spent up to now is     1153.7 secs

     total energy              =    -724.18905098 Ry
     estimated scf accuracy    <       0.03098215 Ry

     total magnetization       =     2.00 Bohr mag/cell
     absolute magnetization    =     2.26 Bohr mag/cell

     iteration # 54     ecut=    60.00 Ry     beta= 0.70
     Davidson diagonalization with overlap

---- Real-time Memory Report at c_bands before calling an iterative solver
           174 MiB given to the printing process from OS
             0 MiB allocation reported by mallinfo(arena+hblkhd)
        141687 MiB available memory on the node where the printing process lives
------------------
     ethr =  1.18E-05,  avg # of iterations =  1.0

     total cpu time spent up to now is     1162.7 secs

     total energy              =    -724.18905210 Ry
     estimated scf accuracy    <       0.03214511 Ry

     total magnetization       =     2.00 Bohr mag/cell
     absolute magnetization    =     2.26 Bohr mag/cell

     iteration # 55     ecut=    60.00 Ry     beta= 0.70
     Davidson diagonalization with overlap

---- Real-time Memory Report at c_bands before calling an iterative solver
           174 MiB given to the printing process from OS
             0 MiB allocation reported by mallinfo(arena+hblkhd)
        141686 MiB available memory on the node where the printing process lives
------------------
     ethr =  1.18E-05,  avg # of iterations =  1.0

     total cpu time spent up to now is     1166.9 secs

     total energy              =    -724.18905447 Ry
     estimated scf accuracy    <       0.03166930 Ry

     total magnetization       =     2.00 Bohr mag/cell
     absolute magnetization    =     2.26 Bohr mag/cell

     iteration # 56     ecut=    60.00 Ry     beta= 0.70
     Davidson diagonalization with overlap

---- Real-time Memory Report at c_bands before calling an iterative solver
           174 MiB given to the printing process from OS
             0 MiB allocation reported by mallinfo(arena+hblkhd)
        141685 MiB available memory on the node where the printing process lives
------------------
     ethr =  1.18E-05,  avg # of iterations =  1.0

     total cpu time spent up to now is     1167.4 secs

     total energy              =    -724.18905292 Ry
     estimated scf accuracy    <       0.03205837 Ry

     total magnetization       =     2.00 Bohr mag/cell
     absolute magnetization    =     2.26 Bohr mag/cell

     iteration # 57     ecut=    60.00 Ry     beta= 0.70
     Davidson diagonalization with overlap

---- Real-time Memory Report at c_bands before calling an iterative solver
           174 MiB given to the printing process from OS
             0 MiB allocation reported by mallinfo(arena+hblkhd)
        141687 MiB available memory on the node where the printing process lives
------------------
     ethr =  1.18E-05,  avg # of iterations =  1.0

     total cpu time spent up to now is     1180.1 secs

     total energy              =    -724.18905084 Ry
     estimated scf accuracy    <       0.03145837 Ry

     total magnetization       =     2.00 Bohr mag/cell
     absolute magnetization    =     2.26 Bohr mag/cell

     iteration # 58     ecut=    60.00 Ry     beta= 0.70
     Davidson diagonalization with overlap

---- Real-time Memory Report at c_bands before calling an iterative solver
           174 MiB given to the printing process from OS
             0 MiB allocation reported by mallinfo(arena+hblkhd)
        141682 MiB available memory on the node where the printing process lives
------------------
     ethr =  1.18E-05,  avg # of iterations =  1.0

     total cpu time spent up to now is     1192.6 secs

     total energy              =    -724.18905436 Ry
     estimated scf accuracy    <       0.03143744 Ry

     total magnetization       =     2.00 Bohr mag/cell
     absolute magnetization    =     2.26 Bohr mag/cell

     iteration # 59     ecut=    60.00 Ry     beta= 0.70
     Davidson diagonalization with overlap

---- Real-time Memory Report at c_bands before calling an iterative solver
           174 MiB given to the printing process from OS
             0 MiB allocation reported by mallinfo(arena+hblkhd)
        141688 MiB available memory on the node where the printing process lives
------------------
     ethr =  1.18E-05,  avg # of iterations =  1.0

     total cpu time spent up to now is     1193.6 secs

     total energy              =    -724.18905200 Ry
     estimated scf accuracy    <       0.03155660 Ry

     total magnetization       =     2.00 Bohr mag/cell
     absolute magnetization    =     2.26 Bohr mag/cell

     iteration # 60     ecut=    60.00 Ry     beta= 0.70
     Davidson diagonalization with overlap

---- Real-time Memory Report at c_bands before calling an iterative solver
           174 MiB given to the printing process from OS
             0 MiB allocation reported by mallinfo(arena+hblkhd)
        141688 MiB available memory on the node where the printing process lives
------------------
     ethr =  1.18E-05,  avg # of iterations =  1.0

     total cpu time spent up to now is     1202.6 secs

     total energy              =    -724.18905216 Ry
     estimated scf accuracy    <       0.03173003 Ry

     total magnetization       =     2.00 Bohr mag/cell
     absolute magnetization    =     2.26 Bohr mag/cell

     iteration # 61     ecut=    60.00 Ry     beta= 0.70
     Davidson diagonalization with overlap

---- Real-time Memory Report at c_bands before calling an iterative solver
           174 MiB given to the printing process from OS
             0 MiB allocation reported by mallinfo(arena+hblkhd)
        141685 MiB available memory on the node where the printing process lives
------------------
     ethr =  1.18E-05,  avg # of iterations =  1.0

     total cpu time spent up to now is     1206.3 secs

     total energy              =    -724.18905322 Ry
     estimated scf accuracy    <       0.03138128 Ry

     total magnetization       =     2.00 Bohr mag/cell
     absolute magnetization    =     2.26 Bohr mag/cell

     iteration # 62     ecut=    60.00 Ry     beta= 0.70
     Davidson diagonalization with overlap

---- Real-time Memory Report at c_bands before calling an iterative solver
           174 MiB given to the printing process from OS
             0 MiB allocation reported by mallinfo(arena+hblkhd)
        141682 MiB available memory on the node where the printing process lives
------------------
     ethr =  1.18E-05,  avg # of iterations =  1.0

     total cpu time spent up to now is     1207.6 secs

     total energy              =    -724.18905197 Ry
     estimated scf accuracy    <       0.03135090 Ry

     total magnetization       =     2.00 Bohr mag/cell
     absolute magnetization    =     2.26 Bohr mag/cell

     iteration # 63     ecut=    60.00 Ry     beta= 0.70
     Davidson diagonalization with overlap

---- Real-time Memory Report at c_bands before calling an iterative solver
           174 MiB given to the printing process from OS
             0 MiB allocation reported by mallinfo(arena+hblkhd)
        141687 MiB available memory on the node where the printing process lives
------------------
     ethr =  1.18E-05,  avg # of iterations =  1.0
